                         Program Version 5.0.4 -  RELEASE  -
|  1> # avogadro generated ORCA input file
|  2> # Basic Mode
|  3> #
|  4> ! RHF OPT FREQ def2-SVP PAL8
|  5>
|  6> * xyz 0 1
|  7>   C   -0.48413620204527      3.69699257752751     -2.01166466270423
|  8>   C   0.42089648388539      3.10695226086090     -0.95568605517521
|  9>   C   0.61296393519259      1.29545535193484      0.75331402535498
| 10>   C   0.98183093062431      2.14242272660766      1.96806050872577
| 11>   C   1.75574446201129      0.47381723109791      0.12988162673248
| 12>   C   4.05970116066772      0.40636151627705     -0.62789842095324
| 13>   N   -0.10090781016309      2.05307908430333     -0.27674299628716
| 14>   N   2.96601917046091      1.06701503845820      0.04522517443103
| 15>   O   1.54461787330450     -0.65368092930720     -0.21831223387753
| 16>   O   1.51995102564193      3.53349411056002     -0.73967574553829
| 17>   H   -0.98581128217649      1.69298602466891     -0.56493299006097
| 18>   H   2.91952386202509      2.06553744236217     -0.00737089961245
| 19>   H   4.30000899846994     -0.52467135828766     -0.11993155130537
| 20>   H   4.92411778263817      1.06533548607233     -0.61230517463254
| 21>   H   3.83103997250372      0.16021294174306     -1.66851278055214
| 22>   H   1.50077615300699      1.52704495384260      2.70238901331668
| 23>   H   0.06912678449149      2.52036619628610      2.43256883640165
| 24>   H   1.60837438764220      2.99023561846804      1.70964075147814
| 25>   H   -0.69233476696745      2.95630219352679     -2.78561755079490
| 26>   H   0.01038793521614      4.55691227177131     -2.45464302934648
| 27>   H   -1.43421199990924      4.00693118137942     -1.57296852467940
| 28>   H   -0.08292885652091      0.52168807984659      1.06799267907919
| 29> *
| 30>
| 31>
| 32>                          ****END OF INPUT****
 Total Charge           Charge          ....    0
 Multiplicity           Mult            ....    1
 Number of Electrons    NEL             ....   78
FINAL SINGLE POINT ENERGY      -492.493195403327
FINAL SINGLE POINT ENERGY      -492.493722683001
FINAL SINGLE POINT ENERGY      -492.494305605383
FINAL SINGLE POINT ENERGY      -492.494680376400
FINAL SINGLE POINT ENERGY      -492.494972594567
FINAL SINGLE POINT ENERGY      -492.495163509820
FINAL SINGLE POINT ENERGY      -492.495171831569
FINAL SINGLE POINT ENERGY      -492.495245925956
FINAL SINGLE POINT ENERGY      -492.495257945783
FINAL SINGLE POINT ENERGY      -492.495267334558
FINAL SINGLE POINT ENERGY      -492.495269806032
                    ***********************HURRAY********************

CARTESIAN COORDINATES (ANGSTROEM)
---------------------------------
  C     -0.464929    3.758163   -1.971278
  C      0.445648    3.155458   -0.925404
  C      0.607432    1.266993    0.734406
  C      0.936863    2.106451    1.968702
  C      1.800055    0.421399    0.263206
  C      4.033214    0.399373   -0.704384
  N     -0.023087    2.029748   -0.341533
  N      2.866205    1.088912   -0.209492
  O      1.758411   -0.772603    0.360461
  O      1.506343    3.646518   -0.650979
  H     -0.886744    1.666192   -0.682876
  H      2.787850    2.078494   -0.337773
  H      4.302120   -0.413248   -0.033585
  H      4.862599    1.102485   -0.757165
  H      3.872366   -0.024225   -1.698741
  H      1.326285    1.456023    2.752924
  H      0.030172    2.585552    2.341026
  H      1.671137    2.878443    1.756622
  H     -0.586983    3.066118   -2.806366
  H     -0.022081    4.681448   -2.332343
  H     -1.451221    3.963457   -1.553218
  H     -0.126906    0.519639    1.020600

 Multiplicity           Mult            ....    1
 Number of Electrons    NEL             ....   78
 Basis Dimension        Dim             ....  200

ORBITAL ENERGIES
----------------

  NO   OCC          E(Eh)            E(eV)
   0   2.0000     -20.528190      -558.6005
   1   2.0000     -20.502176      -557.8926
   2   2.0000     -15.596703      -424.4079
   3   2.0000     -15.563603      -423.5072
   4   2.0000     -11.364922      -309.2553
   5   2.0000     -11.333969      -308.4130
   6   2.0000     -11.284123      -307.0566
   7   2.0000     -11.255067      -306.2659
   8   2.0000     -11.250970      -306.1544
   9   2.0000     -11.230458      -305.5963
  10   2.0000      -1.396954       -38.0130
  11   2.0000      -1.370609       -37.2962
  12   2.0000      -1.239673       -33.7332
  13   2.0000      -1.206724       -32.8366
  14   2.0000      -1.052366       -28.6363
  15   2.0000      -0.991339       -26.9757
  16   2.0000      -0.939490       -25.5648
  17   2.0000      -0.881837       -23.9960
  18   2.0000      -0.801213       -21.8021
  19   2.0000      -0.768641       -20.9158
  20   2.0000      -0.726522       -19.7697
  21   2.0000      -0.704292       -19.1647
  22   2.0000      -0.657432       -17.8896
  23   2.0000      -0.638201       -17.3663
  24   2.0000      -0.628826       -17.1112
  25   2.0000      -0.617998       -16.8166
  26   2.0000      -0.607530       -16.5317
  27   2.0000      -0.590231       -16.0610
  28   2.0000      -0.576072       -15.6757
  29   2.0000      -0.569149       -15.4873
  30   2.0000      -0.548035       -14.9128
  31   2.0000      -0.543143       -14.7797
  32   2.0000      -0.530348       -14.4315
  33   2.0000      -0.519588       -14.1387
  34   2.0000      -0.508414       -13.8346
  35   2.0000      -0.444827       -12.1044
  36   2.0000      -0.434110       -11.8127
  37   2.0000      -0.389567       -10.6007
  38   2.0000      -0.379529       -10.3275
  39   0.0000       0.152693         4.1550
  40   0.0000       0.172169         4.6849
  41   0.0000       0.192801         5.2464
  42   0.0000       0.198889         5.4120
  43   0.0000       0.203295         5.5319

MULLIKEN ATOMIC CHARGES
-----------------------
   0 C :   -0.038825
   1 C :    0.347115
   2 C :    0.080168
   3 C :    0.000125
   4 C :    0.387941
   5 C :    0.173899
   6 N :   -0.442686
   7 N :   -0.460073
   8 O :   -0.430545
   9 O :   -0.459354
  10 H :    0.153842
  11 H :    0.187824
  12 H :    0.049449
  13 H :    0.028995
  14 H :    0.030853
  15 H :    0.046396
  16 H :    0.035360
  17 H :    0.065230
  18 H :    0.062402
  19 H :    0.071819
  20 H :    0.057596
  21 H :    0.052470
Sum of atomic charges:   -0.0000000

LOEWDIN ATOMIC CHARGES
----------------------
   0 C :   -0.050100
   1 C :    0.159675
   2 C :    0.041987
   3 C :   -0.026142
   4 C :    0.140923
   5 C :    0.072688
   6 N :   -0.070766
   7 N :   -0.079737
   8 O :   -0.296671
   9 O :   -0.298418
  10 H :    0.075830
  11 H :    0.068349
  12 H :    0.022897
  13 H :    0.016462
  14 H :    0.010538
  15 H :    0.026813
  16 H :    0.019363
  17 H :    0.025541
  18 H :    0.036606
  19 H :    0.039876
  20 H :    0.033179
  21 H :    0.031107

  Mayer bond orders larger than 0.100000
B(  0-C ,  1-C ) :   0.9934 B(  0-C , 18-H ) :   0.9728 B(  0-C , 19-H ) :   0.9808
B(  0-C , 20-H ) :   0.9761 B(  1-C ,  6-N ) :   1.1500 B(  1-C ,  9-O ) :   1.8775
B(  2-C ,  3-C ) :   1.0317 B(  2-C ,  4-C ) :   0.9411 B(  2-C ,  6-N ) :   0.8495
B(  2-C , 21-H ) :   0.9727 B(  3-C , 15-H ) :   0.9806 B(  3-C , 16-H ) :   0.9813
B(  3-C , 17-H ) :   0.9744 B(  4-C ,  7-N ) :   1.1934 B(  4-C ,  8-O ) :   1.9810
B(  5-C ,  7-N ) :   0.9119 B(  5-C , 12-H ) :   0.9874 B(  5-C , 13-H ) :   0.9932
B(  5-C , 14-H ) :   0.9916 B(  6-N , 10-H ) :   0.9535 B(  7-N , 11-H ) :   0.9139

FINAL SINGLE POINT ENERGY      -492.495270432958

DIPOLE MOMENT
-------------
                                X             Y             Z
Electronic contribution:     -0.53867      -1.99602      -0.05462
Nuclear contribution   :     -0.51996       2.81992      -0.44339
                        -----------------------------------------
Total Dipole Moment    :     -1.05862       0.82390      -0.49801
                        -----------------------------------------
Magnitude (a.u.)       :      1.43091
Magnitude (Debye)      :      3.63709

VIBRATIONAL FREQUENCIES
-----------------------

Scaling factor for frequencies =  1.000000000  (already applied!)

   0:         0.00 cm**-1
   1:         0.00 cm**-1
   2:         0.00 cm**-1
   3:         0.00 cm**-1
   4:         0.00 cm**-1
   5:         0.00 cm**-1
   6:       -51.39 cm**-1 ***imaginary mode***
   7:        40.96 cm**-1
   8:        65.72 cm**-1
   9:        81.87 cm**-1
  10:       129.28 cm**-1
  11:       148.35 cm**-1
  12:       204.76 cm**-1
  13:       226.83 cm**-1
  14:       262.98 cm**-1
  15:       280.08 cm**-1
  16:       345.93 cm**-1
  17:       394.19 cm**-1
  18:       421.38 cm**-1
  19:       501.35 cm**-1
  20:       583.16 cm**-1
  21:       656.43 cm**-1
  22:       691.09 cm**-1
  23:       699.21 cm**-1
  24:       752.71 cm**-1
  25:       872.27 cm**-1
  26:       908.00 cm**-1
  27:       983.01 cm**-1
  28:      1017.36 cm**-1
  29:      1071.52 cm**-1
  30:      1117.43 cm**-1
  31:      1150.72 cm**-1
  32:      1205.95 cm**-1
  33:      1233.39 cm**-1
  34:      1244.74 cm**-1
  35:      1259.63 cm**-1
  36:      1294.03 cm**-1
  37:      1399.01 cm**-1
  38:      1439.01 cm**-1
  39:      1447.17 cm**-1
  40:      1506.13 cm**-1
  41:      1515.53 cm**-1
  42:      1534.87 cm**-1
  43:      1567.49 cm**-1
  44:      1569.42 cm**-1
  45:      1583.22 cm**-1
  46:      1589.78 cm**-1
  47:      1592.46 cm**-1
  48:      1607.33 cm**-1
  49:      1617.24 cm**-1
  50:      1700.44 cm**-1
  51:      1741.45 cm**-1
  52:      1945.46 cm**-1
  53:      1964.05 cm**-1
  54:      3183.21 cm**-1
  55:      3193.24 cm**-1
  56:      3193.49 cm**-1
  57:      3267.98 cm**-1
  58:      3271.81 cm**-1
  59:      3274.57 cm**-1
  60:      3280.05 cm**-1
  61:      3309.42 cm**-1
  62:      3323.68 cm**-1
  63:      3331.20 cm**-1
  64:      3824.80 cm**-1
  65:      3879.09 cm**-1

IR SPECTRUM
-----------

 Mode   freq       eps      Int      T**2         TX        TY        TZ
       cm**-1   L/(mol*cm) km/mol    a.u.
----------------------------------------------------------------------------
  7:     40.96   0.000648    3.27  0.004937  (-0.029948  0.016899 -0.061274)
  8:     65.72   0.000846    4.28  0.004018  ( 0.024000  0.004810  0.058467)
  9:     81.87   0.001512    7.64  0.005762  ( 0.028714 -0.041864 -0.056438)
 10:    129.28   0.002534   12.81  0.006118  ( 0.060509 -0.046320 -0.017637)
 11:    148.35   0.000191    0.96  0.000401  ( 0.009349  0.003640  0.017325)
 12:    204.76   0.001183    5.98  0.001803  (-0.007530  0.041367 -0.005927)
 13:    226.83   0.000267    1.35  0.000367  ( 0.001477 -0.014231  0.012728)
 14:    262.98   0.000216    1.09  0.000257  (-0.004843 -0.005682  0.014180)
 15:    280.08   0.002419   12.22  0.002695  (-0.013992  0.003124 -0.049893)
 16:    345.93   0.002335   11.80  0.002106  ( 0.042396 -0.002222 -0.017429)
 17:    394.19   0.000909    4.60  0.000720  (-0.026805 -0.000294 -0.001120)
 18:    421.38   0.002465   12.46  0.001826  ( 0.005870  0.002373  0.042258)
 19:    501.35   0.017907   90.49  0.011146  (-0.059105  0.052124  0.070256)
 20:    583.16   0.004589   23.19  0.002456  ( 0.025336 -0.041011  0.011479)
 21:    656.43   0.005914   29.89  0.002812  (-0.027293  0.010261 -0.044287)
 22:    691.09   0.008105   40.96  0.003660  (-0.048541 -0.015056 -0.032820)
 23:    699.21   0.012590   63.62  0.005619  ( 0.019382  0.020591  0.069421)
 24:    752.71   0.000305    1.54  0.000127  ( 0.005417  0.008944 -0.004160)
 25:    872.27   0.000591    2.99  0.000212  ( 0.006813  0.001293  0.012784)
 26:    908.00   0.002267   11.46  0.000779  ( 0.026487 -0.007792  0.004110)
 27:    983.01   0.000829    4.19  0.000263  (-0.012319 -0.010560  0.000060)
 28:   1017.36   0.001337    6.76  0.000410  (-0.011400 -0.011241  0.012400)
 29:   1071.52   0.000866    4.38  0.000252  ( 0.009626 -0.012636  0.000119)
 30:   1117.43   0.001776    8.97  0.000496  ( 0.011590  0.014247 -0.012593)
 31:   1150.72   0.002217   11.21  0.000601  ( 0.008814 -0.013147 -0.018729)
 32:   1205.95   0.002448   12.37  0.000634  (-0.011267  0.001844  0.022432)
 33:   1233.39   0.000168    0.85  0.000042  (-0.000878  0.006384  0.000976)
 34:   1244.74   0.001887    9.54  0.000473  (-0.021658  0.001701 -0.001026)
 35:   1259.63   0.004168   21.06  0.001033  (-0.027240  0.016193  0.005332)
 36:   1294.03   0.000748    3.78  0.000180  ( 0.009312 -0.005941 -0.007634)
 37:   1399.01   0.021414  108.22  0.004777  ( 0.030991 -0.052318  0.032847)
 38:   1439.01   0.001635    8.26  0.000355  (-0.010619  0.014486  0.005649)
 39:   1447.17   0.010685   54.00  0.002304  (-0.024797 -0.015810  0.037938)
 40:   1506.13   0.006507   32.88  0.001348  ( 0.003435  0.033837 -0.013835)
 41:   1515.53   0.005457   27.58  0.001124  ( 0.015198 -0.019832  0.022348)
 42:   1534.87   0.010059   50.83  0.002045  ( 0.008935 -0.020991  0.039047)
 43:   1567.49   0.004246   21.46  0.000845  (-0.020853 -0.019569  0.005249)
 44:   1569.42   0.001027    5.19  0.000204  (-0.006474 -0.006064  0.011208)
 45:   1583.22   0.001868    9.44  0.000368  (-0.007818  0.012100  0.012677)
 46:   1589.78   0.001025    5.18  0.000201  (-0.006595 -0.011664  0.004646)
 47:   1592.46   0.004176   21.10  0.000818  (-0.028319 -0.002869 -0.002864)
 48:   1607.33   0.000254    1.28  0.000049  (-0.005327  0.003032 -0.003422)
 49:   1617.24   0.000596    3.01  0.000115  ( 0.002193  0.010407  0.001405)
 50:   1700.44   0.050120  253.29  0.009198  ( 0.002086 -0.079044  0.054275)
 51:   1741.45   0.065146  329.22  0.011674  (-0.094417 -0.023457  0.047002)
 52:   1945.46   0.038867  196.42  0.006234  (-0.075798  0.004976 -0.021550)
 53:   1964.05   0.102989  520.47  0.016364  ( 0.055201  0.114993 -0.009659)
 54:   3183.21   0.012233   61.82  0.001199  (-0.023188  0.010919  0.023289)
 55:   3193.24   0.001120    5.66  0.000109  (-0.007342 -0.001000 -0.007383)
 56:   3193.49   0.003751   18.96  0.000367  ( 0.005315 -0.005067 -0.017682)
 57:   3267.98   0.006918   34.96  0.000661  ( 0.018317  0.008537  0.015881)
 58:   3271.81   0.004822   24.37  0.000460  ( 0.015665 -0.013856  0.004745)
 59:   3274.57   0.002154   10.89  0.000205  ( 0.008180 -0.008024 -0.008602)
 60:   3280.05   0.001771    8.95  0.000169  (-0.008872 -0.008698  0.003764)
 61:   3309.42   0.002934   14.82  0.000277  ( 0.003222  0.013751 -0.008784)
 62:   3323.68   0.001722    8.70  0.000162  (-0.008420 -0.006855  0.006616)
 63:   3331.20   0.000855    4.32  0.000080  (-0.004422 -0.007110  0.003152)
 64:   3824.80   0.035781  180.82  0.002919  ( 0.015114 -0.050621  0.011333)
 65:   3879.09   0.011133   56.26  0.000896  (-0.024824 -0.015926 -0.005074)

--------------------------
THERMOCHEMISTRY AT 298.15K
--------------------------

Temperature         ... 298.15 K
Pressure            ... 1.00 atm
Total Mass          ... 144.17 AMU

Throughout the following assumptions are being made:
  (1) The electronic state is orbitally nondegenerate
  (2) There are no thermally accessible electronically excited states
  (3) Hindered rotations indicated by low frequency modes are not
      treated as such but are treated as vibrations and this may
      cause some error
  (4) All equations used are the standard statistical mechanics
      equations for an ideal gas
  (5) All vibrations are strictly harmonic

freq.      40.96  E(vib)   ...       0.54
freq.      65.72  E(vib)   ...       0.50
freq.      81.87  E(vib)   ...       0.48
freq.     129.28  E(vib)   ...       0.43
freq.     148.35  E(vib)   ...       0.41
freq.     204.76  E(vib)   ...       0.35
freq.     226.83  E(vib)   ...       0.33
freq.     262.98  E(vib)   ...       0.29
freq.     280.08  E(vib)   ...       0.28
freq.     345.93  E(vib)   ...       0.23
freq.     394.19  E(vib)   ...       0.20
freq.     421.38  E(vib)   ...       0.18
freq.     501.35  E(vib)   ...       0.14
freq.     583.16  E(vib)   ...       0.11
freq.     656.43  E(vib)   ...       0.08
freq.     691.09  E(vib)   ...       0.07
freq.     699.21  E(vib)   ...       0.07
freq.     752.71  E(vib)   ...       0.06
freq.     872.27  E(vib)   ...       0.04
freq.     908.00  E(vib)   ...       0.03
freq.     983.01  E(vib)   ...       0.02
freq.    1017.36  E(vib)   ...       0.02
freq.    1071.52  E(vib)   ...       0.02
freq.    1117.43  E(vib)   ...       0.01
freq.    1150.72  E(vib)   ...       0.01
freq.    1205.95  E(vib)   ...       0.01
freq.    1233.39  E(vib)   ...       0.01
freq.    1244.74  E(vib)   ...       0.01
freq.    1259.63  E(vib)   ...       0.01
freq.    1294.03  E(vib)   ...       0.01
freq.    1399.01  E(vib)   ...       0.00
freq.    1439.01  E(vib)   ...       0.00
freq.    1447.17  E(vib)   ...       0.00
freq.    1506.13  E(vib)   ...       0.00
freq.    1515.53  E(vib)   ...       0.00
freq.    1534.87  E(vib)   ...       0.00
freq.    1567.49  E(vib)   ...       0.00
freq.    1569.42  E(vib)   ...       0.00
freq.    1583.22  E(vib)   ...       0.00
freq.    1589.78  E(vib)   ...       0.00
freq.    1592.46  E(vib)   ...       0.00
freq.    1607.33  E(vib)   ...       0.00
freq.    1617.24  E(vib)   ...       0.00
freq.    1700.44  E(vib)   ...       0.00
freq.    1741.45  E(vib)   ...       0.00
freq.    1945.46  E(vib)   ...       0.00
freq.    1964.05  E(vib)   ...       0.00
freq.    3183.21  E(vib)   ...       0.00
freq.    3193.24  E(vib)   ...       0.00
freq.    3193.49  E(vib)   ...       0.00
freq.    3267.98  E(vib)   ...       0.00
freq.    3271.81  E(vib)   ...       0.00
freq.    3274.57  E(vib)   ...       0.00
freq.    3280.05  E(vib)   ...       0.00
freq.    3309.42  E(vib)   ...       0.00
freq.    3323.68  E(vib)   ...       0.00
freq.    3331.20  E(vib)   ...       0.00
freq.    3824.80  E(vib)   ...       0.00
freq.    3879.09  E(vib)   ...       0.00

------------
INNER ENERGY
------------

The inner energy is: U= E(el) + E(ZPE) + E(vib) + E(rot) + E(trans)
    E(el)   - is the total energy from the electronic structure calculation
              = E(kin-el) + E(nuc-el) + E(el-el) + E(nuc-nuc)
    E(ZPE)  - the the zero temperature vibrational energy from the frequency calculation
    E(vib)  - the the finite temperature correction to E(ZPE) due to population
              of excited vibrational states
    E(rot)  - is the rotational thermal energy
    E(trans)- is the translational thermal energy

Summary of contributions to the inner energy U:
Electronic energy                ...   -492.49527043 Eh
Zero point energy                ...      0.19933264 Eh     125.08 kcal/mol
Thermal vibrational correction   ...      0.00794668 Eh       4.99 kcal/mol
Thermal rotational correction    ...      0.00141627 Eh       0.89 kcal/mol
Thermal translational correction ...      0.00141627 Eh       0.89 kcal/mol
-----------------------------------------------------------------------
Total thermal energy                   -492.28515857 Eh

Summary of corrections to the electronic energy:
(perhaps to be used in another calculation)
Total thermal correction                  0.01077922 Eh       6.76 kcal/mol
Non-thermal (ZPE) correction              0.19933264 Eh     125.08 kcal/mol
-----------------------------------------------------------------------
Total correction                          0.21011186 Eh     131.85 kcal/mol

--------
ENTHALPY
--------

The enthalpy is H = U + kB*T
                kB is Boltzmann's constant
Total free energy                 ...   -492.28515857 Eh
Thermal Enthalpy correction       ...      0.00094421 Eh       0.59 kcal/mol
-----------------------------------------------------------------------
Total Enthalpy                    ...   -492.28421436 Eh

Note: Only C1 symmetry has been detected, increase convergence thresholds
      if your molecule has a higher symmetry. Symmetry factor of 1.0 is
      used for the rotational entropy correction.

Note: Rotational entropy computed according to Herzberg
Infrared and Raman Spectra, Chapter V,1, Van Nostrand Reinhold, 1945
Point Group:  C1, Symmetry Number:   1
Rotational constants in cm-1:     0.064830     0.030013     0.025920

Vibrational entropy computed according to the QRRHO of S. Grimme
Chem.Eur.J. 2012 18 9955

-------
ENTROPY
-------

The entropy contributions are T*S = T*(S(el)+S(vib)+S(rot)+S(trans))
     S(el)   - electronic entropy
     S(vib)  - vibrational entropy
     S(rot)  - rotational entropy
     S(trans)- translational entropy
The entropies will be listed as multiplied by the temperature to get
units of energy

Electronic entropy                ...      0.00000000 Eh      0.00 kcal/mol
Vibrational entropy               ...      0.01407794 Eh      8.83 kcal/mol
Rotational entropy                ...      0.01418209 Eh      8.90 kcal/mol
Translational entropy             ...      0.01938939 Eh     12.17 kcal/mol
-----------------------------------------------------------------------
Final entropy term                ...      0.04764942 Eh     29.90 kcal/mol

In case the symmetry of your molecule has not been determined correctly
or in case you have a reason to use a different symmetry number we print
out the resulting rotational entropy values for sn=1,12 :
 --------------------------------------------------------
|  sn= 1 | S(rot)=       0.01418209 Eh      8.90 kcal/mol|
|  sn= 2 | S(rot)=       0.01352763 Eh      8.49 kcal/mol|
|  sn= 3 | S(rot)=       0.01314480 Eh      8.25 kcal/mol|
|  sn= 4 | S(rot)=       0.01287318 Eh      8.08 kcal/mol|

                             ****ORCA TERMINATED NORMALLY****
TOTAL RUN TIME: 0 days 0 hours 7 minutes 29 seconds 16 msec
