                         Program Version 5.0.4 -  RELEASE  -
|  1> # avogadro generated ORCA input file
|  2> # Basic Mode
|  3> #
|  4> ! RHF OPT FREQ def2-SVP
|  5>
|  6> * xyz 0 1
|  7>    C       -0.90833        2.95392       -1.88316
|  8>    C        0.17142        3.00797       -0.83413
|  9>    C        1.13651        1.77737        1.10722
| 10>    C        1.42223        3.03309        1.92739
| 11>    C        2.38660        1.10667        0.48387
| 12>    C        4.72576        0.43164        0.86338
| 13>    N        0.11461        1.97506        0.07647
| 14>    N        3.51317        1.08942        1.28022
| 15>    O        2.33888        0.51744       -0.59686
| 16>    O        0.97740        3.93013       -0.78722
| 17>    H       -0.31379        1.12256       -0.26182
| 18>    H        3.47317        1.45378        2.22236
| 19>    H        4.85781        0.50871       -0.21914
| 20>    H        4.66599       -0.62113        1.15198
| 21>    H        5.56823        0.90385        1.37482
| 22>    H        1.90877        2.77715        2.87520
| 23>    H        0.49640        3.56711        2.16972
| 24>    H        2.09262        3.72270        1.40381
| 25>    H       -1.34870        1.95635       -1.96269
| 26>    H       -0.48167        3.21913       -2.85432
| 27>    H       -1.69343        3.66791       -1.61891
| 28>    H        0.70485        1.02841        1.78362
| 29> *
| 30>
| 31>
| 32>
| 33>                          ****END OF INPUT****
 Total Charge           Charge          ....    0
 Multiplicity           Mult            ....    1
 Number of Electrons    NEL             ....   78
FINAL SINGLE POINT ENERGY      -492.480796702852
FINAL SINGLE POINT ENERGY      -492.489054833025
FINAL SINGLE POINT ENERGY      -492.489658561824
FINAL SINGLE POINT ENERGY      -492.490154207354
FINAL SINGLE POINT ENERGY      -492.490378241166
FINAL SINGLE POINT ENERGY      -492.490633919160
FINAL SINGLE POINT ENERGY      -492.490778077642
FINAL SINGLE POINT ENERGY      -492.490924186483
FINAL SINGLE POINT ENERGY      -492.491040479198
FINAL SINGLE POINT ENERGY      -492.491062093805
FINAL SINGLE POINT ENERGY      -492.491069678344
FINAL SINGLE POINT ENERGY      -492.491071479608
                    ***********************HURRAY********************

CARTESIAN COORDINATES (ANGSTROEM)
---------------------------------
  C     -0.586130    2.949784   -1.963597
  C      0.415723    2.842212   -0.838748
  C      1.010064    1.707908    1.245067
  C      1.300781    2.893605    2.163423
  C      2.217427    0.974313    0.632695
  C      4.632577    0.614927    0.628868
  N      0.063522    2.035494    0.197558
  N      3.436617    1.256017    1.126423
  O      2.028277    0.141634   -0.206381
  O      1.434861    3.468307   -0.841301
  H     -0.642986    1.356017    0.017284
  H      3.540081    2.026736    1.746429
  H      4.493178    0.337797   -0.412157
  H      4.876240   -0.286715    1.194881
  H      5.469746    1.307449    0.701818
  H      1.878542    2.576514    3.033561
  H      0.357616    3.299794    2.527740
  H      1.832280    3.685409    1.640680
  H     -1.308840    2.135601   -1.976248
  H     -0.044689    2.975135   -2.906522
  H     -1.122384    3.893919   -1.857504
  H      0.525995    0.937382    1.847842

 Multiplicity           Mult            ....    1
 Number of Electrons    NEL             ....   78
 Basis Dimension        Dim             ....  200

ORBITAL ENERGIES
----------------

  NO   OCC          E(Eh)            E(eV)
   0   2.0000     -20.510176      -558.1103
   1   2.0000     -20.501857      -557.8839
   2   2.0000     -15.578228      -423.9051
   3   2.0000     -15.577081      -423.8739
   4   2.0000     -11.345579      -308.7289
   5   2.0000     -11.339255      -308.5568
   6   2.0000     -11.282788      -307.0203
   7   2.0000     -11.260422      -306.4117
   8   2.0000     -11.236718      -305.7666
   9   2.0000     -11.232060      -305.6399
  10   2.0000      -1.384325       -37.6694
  11   2.0000      -1.370950       -37.3054
  12   2.0000      -1.224556       -33.3219
  13   2.0000      -1.216884       -33.1131
  14   2.0000      -1.044982       -28.4354
  15   2.0000      -0.981950       -26.7202
  16   2.0000      -0.941452       -25.6182
  17   2.0000      -0.879557       -23.9340
  18   2.0000      -0.795411       -21.6442
  19   2.0000      -0.771480       -20.9930
  20   2.0000      -0.720103       -19.5950
  21   2.0000      -0.697262       -18.9735
  22   2.0000      -0.649806       -17.6821
  23   2.0000      -0.641872       -17.4662
  24   2.0000      -0.620847       -16.8941
  25   2.0000      -0.617471       -16.8022
  26   2.0000      -0.599599       -16.3159
  27   2.0000      -0.587335       -15.9822
  28   2.0000      -0.567253       -15.4357
  29   2.0000      -0.559978       -15.2378
  30   2.0000      -0.551446       -15.0056
  31   2.0000      -0.543141       -14.7796
  32   2.0000      -0.533637       -14.5210
  33   2.0000      -0.513545       -13.9743
  34   2.0000      -0.501606       -13.6494
  35   2.0000      -0.424718       -11.5572
  36   2.0000      -0.420207       -11.4344
  37   2.0000      -0.394969       -10.7477
  38   2.0000      -0.387372       -10.5409
  39   0.0000       0.159789         4.3481
  40   0.0000       0.179026         4.8715
  41   0.0000       0.190549         5.1851
  42   0.0000       0.194891         5.3033
  43   0.0000       0.215111         5.8535

MULLIKEN ATOMIC CHARGES
-----------------------
   0 C :   -0.011549
   1 C :    0.337509
   2 C :    0.029444
   3 C :    0.007649
   4 C :    0.421194
   5 C :    0.165360
   6 N :   -0.422855
   7 N :   -0.448859
   8 O :   -0.444592
   9 O :   -0.440657
  10 H :    0.153936
  11 H :    0.156624
  12 H :    0.064345
  13 H :    0.034785
  14 H :    0.029131
  15 H :    0.027554
  16 H :    0.041844
  17 H :    0.073978
  18 H :    0.031778
  19 H :    0.069546
  20 H :    0.066555
  21 H :    0.057281
Sum of atomic charges:    0.0000000

LOEWDIN ATOMIC CHARGES
----------------------
   0 C :   -0.047704
   1 C :    0.160386
   2 C :    0.034032
   3 C :   -0.037240
   4 C :    0.148257
   5 C :    0.074978
   6 N :   -0.068259
   7 N :   -0.073265
   8 O :   -0.304271
   9 O :   -0.292657
  10 H :    0.072810
  11 H :    0.070457
  12 H :    0.028977
  13 H :    0.011820
  14 H :    0.016023
  15 H :    0.013678
  16 H :    0.025460
  17 H :    0.027981
  18 H :    0.020081
  19 H :    0.042230
  20 H :    0.042678
  21 H :    0.033549

  Mayer bond orders larger than 0.100000
B(  0-C ,  1-C ) :   0.9921 B(  0-C , 18-H ) :   0.9832 B(  0-C , 19-H ) :   0.9765
B(  0-C , 20-H ) :   0.9671 B(  1-C ,  6-N ) :   1.1134 B(  1-C ,  9-O ) :   1.9324
B(  2-C ,  3-C ) :   1.0330 B(  2-C ,  4-C ) :   0.9075 B(  2-C ,  6-N ) :   0.9214
B(  2-C , 21-H ) :   0.9629 B(  3-C , 15-H ) :   0.9790 B(  3-C , 16-H ) :   0.9749
B(  3-C , 17-H ) :   0.9760 B(  4-C ,  7-N ) :   1.1824 B(  4-C ,  8-O ) :   1.9657
B(  5-C ,  7-N ) :   0.8998 B(  5-C , 12-H ) :   0.9864 B(  5-C , 13-H ) :   0.9922
B(  5-C , 14-H ) :   0.9937 B(  6-N , 10-H ) :   0.9458 B(  7-N , 11-H ) :   0.9391

FINAL SINGLE POINT ENERGY      -492.491073410532

DIPOLE MOMENT
-------------
                                X             Y             Z
Electronic contribution:     -0.99080      -1.38192      -1.83667
Nuclear contribution   :      0.48249       1.48388       2.86917
                        -----------------------------------------
Total Dipole Moment    :     -0.50831       0.10196       1.03250
                        -----------------------------------------
Magnitude (a.u.)       :      1.15535
Magnitude (Debye)      :      2.93667

VIBRATIONAL FREQUENCIES
-----------------------

Scaling factor for frequencies =  1.000000000  (already applied!)

   0:         0.00 cm**-1
   1:         0.00 cm**-1
   2:         0.00 cm**-1
   3:         0.00 cm**-1
   4:         0.00 cm**-1
   5:         0.00 cm**-1
   6:       -89.57 cm**-1 ***imaginary mode***
   7:       -61.55 cm**-1 ***imaginary mode***
   8:        29.42 cm**-1
   9:        80.28 cm**-1
  10:        86.03 cm**-1
  11:       165.51 cm**-1
  12:       200.67 cm**-1
  13:       230.59 cm**-1
  14:       291.43 cm**-1
  15:       332.69 cm**-1
  16:       373.52 cm**-1
  17:       396.71 cm**-1
  18:       440.51 cm**-1
  19:       506.31 cm**-1
  20:       521.57 cm**-1
  21:       539.39 cm**-1
  22:       626.00 cm**-1
  23:       682.23 cm**-1
  24:       725.00 cm**-1
  25:       862.15 cm**-1
  26:       912.62 cm**-1
  27:       998.02 cm**-1
  28:      1030.99 cm**-1
  29:      1108.57 cm**-1
  30:      1110.79 cm**-1
  31:      1151.22 cm**-1
  32:      1182.86 cm**-1
  33:      1234.09 cm**-1
  34:      1246.36 cm**-1
  35:      1266.98 cm**-1
  36:      1290.28 cm**-1
  37:      1384.38 cm**-1
  38:      1400.89 cm**-1
  39:      1449.71 cm**-1
  40:      1491.79 cm**-1
  41:      1515.69 cm**-1
  42:      1530.73 cm**-1
  43:      1564.72 cm**-1
  44:      1567.53 cm**-1
  45:      1588.83 cm**-1
  46:      1593.86 cm**-1
  47:      1599.63 cm**-1
  48:      1615.84 cm**-1
  49:      1619.03 cm**-1
  50:      1685.61 cm**-1
  51:      1715.08 cm**-1
  52:      1958.46 cm**-1
  53:      1971.88 cm**-1
  54:      3188.24 cm**-1
  55:      3190.45 cm**-1
  56:      3199.98 cm**-1
  57:      3220.89 cm**-1
  58:      3270.15 cm**-1
  59:      3270.70 cm**-1
  60:      3287.39 cm**-1
  61:      3312.03 cm**-1
  62:      3315.13 cm**-1
  63:      3324.17 cm**-1
  64:      3890.79 cm**-1
  65:      3923.91 cm**-1

IR SPECTRUM
-----------

 Mode   freq       eps      Int      T**2         TX        TY        TZ
       cm**-1   L/(mol*cm) km/mol    a.u.
----------------------------------------------------------------------------
  8:     29.42   0.002863   14.47  0.030369  (-0.043515  0.135834 -0.100124)
  9:     80.28   0.000439    2.22  0.001707  ( 0.023627  0.000300 -0.033890)
 10:     86.03   0.003218   16.26  0.011673  ( 0.074885 -0.057700 -0.052308)
 11:    165.51   0.000244    1.23  0.000460  (-0.001391  0.012717 -0.017224)
 12:    200.67   0.000834    4.22  0.001298  (-0.010973 -0.005795  0.033817)
 13:    230.59   0.000182    0.92  0.000246  ( 0.004090 -0.013288 -0.007288)
 14:    291.43   0.000694    3.51  0.000743  (-0.002660 -0.017956  0.020334)
 15:    332.69   0.004790   24.21  0.004493  ( 0.042195 -0.032835  0.040429)
 16:    373.52   0.001042    5.27  0.000871  (-0.026480 -0.007586  0.010587)
 17:    396.71   0.007236   36.57  0.005692  ( 0.069302 -0.028813  0.007692)
 18:    440.51   0.018735   94.68  0.013272  (-0.007099 -0.055914  0.100477)
 19:    506.31   0.009896   50.01  0.006100  (-0.058961  0.011872  0.049821)
 20:    521.57   0.004832   24.42  0.002891  (-0.053044  0.004110  0.007791)
 21:    539.39   0.004800   24.26  0.002777  ( 0.029245 -0.014921 -0.041222)
 22:    626.00   0.000935    4.72  0.000466  ( 0.021468 -0.002192  0.000592)
 23:    682.23   0.001319    6.67  0.000604  (-0.011404  0.019858  0.008896)
 24:    725.00   0.004501   22.75  0.001937  (-0.022389  0.008213  0.036996)
 25:    862.15   0.002512   12.69  0.000909  (-0.001582  0.023499 -0.018825)
 26:    912.62   0.001088    5.50  0.000372  ( 0.016103 -0.008781 -0.005963)
 27:    998.02   0.000383    1.93  0.000120  ( 0.003799  0.002803  0.009866)
 28:   1030.99   0.000446    2.26  0.000135  ( 0.007998  0.003499 -0.007675)
 29:   1108.57   0.002164   10.94  0.000609  ( 0.002902 -0.016892  0.017759)
 30:   1110.79   0.001837    9.29  0.000516  ( 0.021763  0.002041  0.006196)
 31:   1151.22   0.003917   19.79  0.001062  ( 0.022602 -0.021140 -0.010196)
 32:   1182.86   0.000783    3.96  0.000207  (-0.008286  0.008378  0.008231)
 33:   1234.09   0.004100   20.72  0.001037  (-0.028717  0.011072  0.009458)
 34:   1246.36   0.000796    4.02  0.000199  ( 0.011660  0.006617  0.004430)
 35:   1266.98   0.001651    8.34  0.000407  (-0.018234  0.006591 -0.005548)
 36:   1290.28   0.001917    9.69  0.000464  (-0.019662  0.005168 -0.007098)
 37:   1384.38   0.033122  167.39  0.007466  ( 0.061667 -0.036777  0.048072)
 38:   1400.89   0.011028   55.73  0.002457  ( 0.017182  0.011261 -0.045105)
 39:   1449.71   0.001909    9.65  0.000411  (-0.011990 -0.000576 -0.016333)
 40:   1491.79   0.002881   14.56  0.000603  ( 0.006273 -0.018310  0.015103)
 41:   1515.69   0.004610   23.30  0.000949  ( 0.010243 -0.018812  0.022144)
 42:   1530.73   0.008816   44.55  0.001797  (-0.010379  0.001132 -0.041089)
 43:   1564.72   0.002957   14.95  0.000590  (-0.013375  0.001752 -0.020195)
 44:   1567.53   0.002337   11.81  0.000465  (-0.019437 -0.004291  0.008305)
 45:   1588.83   0.002801   14.16  0.000550  ( 0.013324  0.015077  0.012056)
 46:   1593.86   0.004285   21.65  0.000839  ( 0.026760  0.002265 -0.010851)
 47:   1599.63   0.002110   10.66  0.000412  ( 0.008830  0.010228 -0.015137)
 48:   1615.84   0.000170    0.86  0.000033  (-0.004778 -0.002460 -0.001990)
 49:   1619.03   0.001755    8.87  0.000338  (-0.012261  0.013098  0.004042)
 50:   1685.61   0.055309  279.51  0.010240  ( 0.021862 -0.057059  0.080659)
 51:   1715.08   0.056206  284.04  0.010227  (-0.100778 -0.000661 -0.008383)
 52:   1958.46   0.078556  396.99  0.012517  ( 0.047809  0.074268  0.068672)
 53:   1971.88   0.050077  253.07  0.007925  ( 0.075990  0.043536 -0.015974)
 54:   3188.24   0.013016   65.78  0.001274  ( 0.030618 -0.016525  0.007965)
 55:   3190.45   0.004352   21.99  0.000426  (-0.003026 -0.007562 -0.018955)
 56:   3199.98   0.001139    5.75  0.000111  (-0.009729 -0.000762 -0.003975)
 57:   3220.89   0.003586   18.12  0.000347  (-0.003318 -0.014483  0.011256)
 58:   3270.15   0.006405   32.37  0.000611  (-0.014757 -0.018000  0.008334)
 59:   3270.70   0.006117   30.91  0.000584  ( 0.016677 -0.015674  0.007735)
 60:   3287.39   0.002435   12.31  0.000231  (-0.004627 -0.014146 -0.003104)
 61:   3312.03   0.001397    7.06  0.000132  (-0.006020 -0.003908  0.008952)
 62:   3315.13   0.001679    8.49  0.000158  ( 0.009471  0.005744 -0.005949)
 63:   3324.17   0.001294    6.54  0.000121  (-0.004912 -0.003255 -0.009314)
 64:   3890.79   0.010765   54.40  0.000863  (-0.020568 -0.020985 -0.000213)
 65:   3923.91   0.011259   56.90  0.000895  (-0.007521 -0.022059 -0.018770)

--------------------------
THERMOCHEMISTRY AT 298.15K
--------------------------

Temperature         ... 298.15 K
Pressure            ... 1.00 atm
Total Mass          ... 144.17 AMU

Throughout the following assumptions are being made:
  (1) The electronic state is orbitally nondegenerate
  (2) There are no thermally accessible electronically excited states
  (3) Hindered rotations indicated by low frequency modes are not
      treated as such but are treated as vibrations and this may
      cause some error
  (4) All equations used are the standard statistical mechanics
      equations for an ideal gas
  (5) All vibrations are strictly harmonic

freq.      29.42  E(vib)   ...       0.55
freq.      80.28  E(vib)   ...       0.49
freq.      86.03  E(vib)   ...       0.48
freq.     165.51  E(vib)   ...       0.39
freq.     200.67  E(vib)   ...       0.35
freq.     230.59  E(vib)   ...       0.32
freq.     291.43  E(vib)   ...       0.27
freq.     332.69  E(vib)   ...       0.24
freq.     373.52  E(vib)   ...       0.21
freq.     396.71  E(vib)   ...       0.20
freq.     440.51  E(vib)   ...       0.17
freq.     506.31  E(vib)   ...       0.14
freq.     521.57  E(vib)   ...       0.13
freq.     539.39  E(vib)   ...       0.12
freq.     626.00  E(vib)   ...       0.09
freq.     682.23  E(vib)   ...       0.08
freq.     725.00  E(vib)   ...       0.06
freq.     862.15  E(vib)   ...       0.04
freq.     912.62  E(vib)   ...       0.03
freq.     998.02  E(vib)   ...       0.02
freq.    1030.99  E(vib)   ...       0.02
freq.    1108.57  E(vib)   ...       0.02
freq.    1110.79  E(vib)   ...       0.01
freq.    1151.22  E(vib)   ...       0.01
freq.    1182.86  E(vib)   ...       0.01
freq.    1234.09  E(vib)   ...       0.01
freq.    1246.36  E(vib)   ...       0.01
freq.    1266.98  E(vib)   ...       0.01
freq.    1290.28  E(vib)   ...       0.01
freq.    1384.38  E(vib)   ...       0.00
freq.    1400.89  E(vib)   ...       0.00
freq.    1449.71  E(vib)   ...       0.00
freq.    1491.79  E(vib)   ...       0.00
freq.    1515.69  E(vib)   ...       0.00
freq.    1530.73  E(vib)   ...       0.00
freq.    1564.72  E(vib)   ...       0.00
freq.    1567.53  E(vib)   ...       0.00
freq.    1588.83  E(vib)   ...       0.00
freq.    1593.86  E(vib)   ...       0.00
freq.    1599.63  E(vib)   ...       0.00
freq.    1615.84  E(vib)   ...       0.00
freq.    1619.03  E(vib)   ...       0.00
freq.    1685.61  E(vib)   ...       0.00
freq.    1715.08  E(vib)   ...       0.00
freq.    1958.46  E(vib)   ...       0.00
freq.    1971.88  E(vib)   ...       0.00
freq.    3188.24  E(vib)   ...       0.00
freq.    3190.45  E(vib)   ...       0.00
freq.    3199.98  E(vib)   ...       0.00
freq.    3220.89  E(vib)   ...       0.00
freq.    3270.15  E(vib)   ...       0.00
freq.    3270.70  E(vib)   ...       0.00
freq.    3287.39  E(vib)   ...       0.00
freq.    3312.03  E(vib)   ...       0.00
freq.    3315.13  E(vib)   ...       0.00
freq.    3324.17  E(vib)   ...       0.00
freq.    3890.79  E(vib)   ...       0.00
freq.    3923.91  E(vib)   ...       0.00

------------
INNER ENERGY
------------

The inner energy is: U= E(el) + E(ZPE) + E(vib) + E(rot) + E(trans)
    E(el)   - is the total energy from the electronic structure calculation
              = E(kin-el) + E(nuc-el) + E(el-el) + E(nuc-nuc)
    E(ZPE)  - the the zero temperature vibrational energy from the frequency calculation
    E(vib)  - the the finite temperature correction to E(ZPE) due to population
              of excited vibrational states
    E(rot)  - is the rotational thermal energy
    E(trans)- is the translational thermal energy

Summary of contributions to the inner energy U:
Electronic energy                ...   -492.49107341 Eh
Zero point energy                ...      0.19881619 Eh     124.76 kcal/mol
Thermal vibrational correction   ...      0.00721826 Eh       4.53 kcal/mol
Thermal rotational correction    ...      0.00141627 Eh       0.89 kcal/mol
Thermal translational correction ...      0.00141627 Eh       0.89 kcal/mol
-----------------------------------------------------------------------
Total thermal energy                   -492.28220641 Eh

Summary of corrections to the electronic energy:
(perhaps to be used in another calculation)
Total thermal correction                  0.01005081 Eh       6.31 kcal/mol
Non-thermal (ZPE) correction              0.19881619 Eh     124.76 kcal/mol
-----------------------------------------------------------------------
Total correction                          0.20886700 Eh     131.07 kcal/mol

--------
ENTHALPY
--------

The enthalpy is H = U + kB*T
                kB is Boltzmann's constant
Total free energy                 ...   -492.28220641 Eh
Thermal Enthalpy correction       ...      0.00094421 Eh       0.59 kcal/mol
-----------------------------------------------------------------------
Total Enthalpy                    ...   -492.28126220 Eh

Note: Only C1 symmetry has been detected, increase convergence thresholds
      if your molecule has a higher symmetry. Symmetry factor of 1.0 is
      used for the rotational entropy correction.

Note: Rotational entropy computed according to Herzberg
Infrared and Raman Spectra, Chapter V,1, Van Nostrand Reinhold, 1945
Point Group:  C1, Symmetry Number:   1
Rotational constants in cm-1:     0.071770     0.029010     0.026156

Vibrational entropy computed according to the QRRHO of S. Grimme
Chem.Eur.J. 2012 18 9955

-------
ENTROPY
-------

The entropy contributions are T*S = T*(S(el)+S(vib)+S(rot)+S(trans))
     S(el)   - electronic entropy
     S(vib)  - vibrational entropy
     S(rot)  - rotational entropy
     S(trans)- translational entropy
The entropies will be listed as multiplied by the temperature to get
units of energy

Electronic entropy                ...      0.00000000 Eh      0.00 kcal/mol
Vibrational entropy               ...      0.01260868 Eh      7.91 kcal/mol
Rotational entropy                ...      0.01414584 Eh      8.88 kcal/mol
Translational entropy             ...      0.01938939 Eh     12.17 kcal/mol
-----------------------------------------------------------------------
Final entropy term                ...      0.04614391 Eh     28.96 kcal/mol

In case the symmetry of your molecule has not been determined correctly
or in case you have a reason to use a different symmetry number we print
out the resulting rotational entropy values for sn=1,12 :
 --------------------------------------------------------
|  sn= 1 | S(rot)=       0.01414584 Eh      8.88 kcal/mol|
|  sn= 2 | S(rot)=       0.01349139 Eh      8.47 kcal/mol|
|  sn= 3 | S(rot)=       0.01310855 Eh      8.23 kcal/mol|
|  sn= 4 | S(rot)=       0.01283693 Eh      8.06 kcal/mol|
|  sn= 5 | S(rot)=       0.01262624 Eh      7.92 kcal/mol|

                             ****ORCA TERMINATED NORMALLY****
TOTAL RUN TIME: 0 days 0 hours 45 minutes 46 seconds 418 msec
