                         Program Version 5.0.4 -  RELEASE  -
|  1> # avogadro generated ORCA input file
|  2> # Basic Mode
|  3> #
|  4> ! RHF OPT FREQ def2-SVP
|  5>
|  6> * xyz 0 1
|  7>    C       -1.11118        3.34008       -1.80358
|  8>    C        0.10821        3.18467       -0.93523
|  9>    C        1.15945        1.68727        0.79623
| 10>    C        1.43079        2.77681        1.82897
| 11>    C        2.47354        1.21360        0.13863
| 12>    C        4.28799        1.83474       -1.40389
| 13>    N        0.11368        2.04715       -0.16845
| 14>    N        2.99447        2.05673       -0.81621
| 15>    O        3.06060        0.20632        0.53139
| 16>    O        1.01201        4.01488       -0.92353
| 17>    H       -0.60176        1.35114       -0.33450
| 18>    H        2.55078        2.96963       -0.93194
| 19>    H        4.43137        0.77181       -1.61581
| 20>    H        5.05379        2.17185       -0.70040
| 21>    H        4.35438        2.41277       -2.32835
| 22>    H        2.09128        2.39845        2.61705
| 23>    H        0.49959        3.11416        2.29612
| 24>    H        1.92543        3.65041        1.39324
| 25>    H       -1.58326        2.37484       -2.00720
| 26>    H       -0.81717        3.78258       -2.75959
| 27>    H       -1.82849        3.99413       -1.30101
| 28>    H        0.75214        0.81512        1.32373
| 29> *
| 30>
| 31>
| 32>                          ****END OF INPUT****
 Total Charge           Charge          ....    0
 Multiplicity           Mult            ....    1
 Number of Electrons    NEL             ....   78
FINAL SINGLE POINT ENERGY      -492.486216300687
FINAL SINGLE POINT ENERGY      -492.493322284598
FINAL SINGLE POINT ENERGY      -492.494499229736
FINAL SINGLE POINT ENERGY      -492.495065812761
FINAL SINGLE POINT ENERGY      -492.495155241091
FINAL SINGLE POINT ENERGY      -492.495249450003
FINAL SINGLE POINT ENERGY      -492.495295271766
FINAL SINGLE POINT ENERGY      -492.495322108800
FINAL SINGLE POINT ENERGY      -492.495332616399
FINAL SINGLE POINT ENERGY      -492.495336993296
                    ***********************HURRAY********************

CARTESIAN COORDINATES (ANGSTROEM)
---------------------------------
  C     -1.192827    3.335397   -1.784041
  C      0.070150    3.182353   -0.968213
  C      1.185191    1.721666    0.754375
  C      1.407900    2.799929    1.816238
  C      2.511012    1.259797    0.132829
  C      4.367519    1.787540   -1.353459
  N      0.149139    2.062402   -0.218666
  N      3.092403    2.089394   -0.748891
  O      2.985165    0.211172    0.469599
  O      0.923944    4.027892   -0.982775
  H     -0.586669    1.397251   -0.316519
  H      2.659357    2.974221   -0.927641
  H      4.430603    0.725885   -1.578849
  H      5.204110    2.044436   -0.699228
  H      4.464984    2.353105   -2.278835
  H      2.132006    2.439722    2.547769
  H      0.471045    3.007317    2.335417
  H      1.774977    3.727383    1.384863
  H     -1.683701    2.386104   -1.994109
  H     -0.945795    3.835591   -2.717155
  H     -1.885105    3.972519   -1.231157
  H      0.822232    0.828065    1.254119

 Multiplicity           Mult            ....    1
 Number of Electrons    NEL             ....   78
 Basis Dimension        Dim             ....  200

ORBITAL ENERGIES
----------------

  NO   OCC          E(Eh)            E(eV)
   0   2.0000     -20.525817      -558.5359
   1   2.0000     -20.501306      -557.8689
   2   2.0000     -15.598027      -424.4439
   3   2.0000     -15.563489      -423.5041
   4   2.0000     -11.364956      -309.2562
   5   2.0000     -11.334250      -308.4206
   6   2.0000     -11.284492      -307.0666
   7   2.0000     -11.254797      -306.2586
   8   2.0000     -11.251516      -306.1693
   9   2.0000     -11.231023      -305.6117
  10   2.0000      -1.395745       -37.9802
  11   2.0000      -1.369934       -37.2778
  12   2.0000      -1.240433       -33.7539
  13   2.0000      -1.206408       -32.8280
  14   2.0000      -1.052350       -28.6359
  15   2.0000      -0.991849       -26.9896
  16   2.0000      -0.940126       -25.5821
  17   2.0000      -0.881931       -23.9986
  18   2.0000      -0.801673       -21.8146
  19   2.0000      -0.769211       -20.9313
  20   2.0000      -0.727944       -19.8084
  21   2.0000      -0.704246       -19.1635
  22   2.0000      -0.656412       -17.8619
  23   2.0000      -0.637609       -17.3502
  24   2.0000      -0.627349       -17.0710
  25   2.0000      -0.617487       -16.8027
  26   2.0000      -0.606803       -16.5120
  27   2.0000      -0.592401       -16.1201
  28   2.0000      -0.577962       -15.7271
  29   2.0000      -0.570169       -15.5151
  30   2.0000      -0.548197       -14.9172
  31   2.0000      -0.542428       -14.7602
  32   2.0000      -0.529293       -14.4028
  33   2.0000      -0.519251       -14.1295
  34   2.0000      -0.506159       -13.7733
  35   2.0000      -0.444079       -12.0840
  36   2.0000      -0.433754       -11.8030
  37   2.0000      -0.390695       -10.6313
  38   2.0000      -0.378481       -10.2990
  39   0.0000       0.152967         4.1624
  40   0.0000       0.170208         4.6316
  41   0.0000       0.190387         5.1807
  42   0.0000       0.198003         5.3879
  43   0.0000       0.211094         5.7441

MULLIKEN ATOMIC CHARGES
-----------------------
   0 C :   -0.019767
   1 C :    0.344181
   2 C :    0.077704
   3 C :   -0.004707
   4 C :    0.388532
   5 C :    0.172697
   6 N :   -0.438874
   7 N :   -0.459845
   8 O :   -0.433238
   9 O :   -0.468686
  10 H :    0.155654
  11 H :    0.187708
  12 H :    0.050588
  13 H :    0.033309
  14 H :    0.028605
  15 H :    0.049255
  16 H :    0.036388
  17 H :    0.066087
  18 H :    0.037329
  19 H :    0.069959
  20 H :    0.073494
  21 H :    0.053628
Sum of atomic charges:   -0.0000000

LOEWDIN ATOMIC CHARGES
----------------------
   0 C :   -0.047014
   1 C :    0.160609
   2 C :    0.041082
   3 C :   -0.025257
   4 C :    0.142241
   5 C :    0.072782
   6 N :   -0.067777
   7 N :   -0.079265
   8 O :   -0.299063
   9 O :   -0.304996
  10 H :    0.075184
  11 H :    0.068078
  12 H :    0.023525
  13 H :    0.011224
  14 H :    0.015774
  15 H :    0.027799
  16 H :    0.019369
  17 H :    0.025783
  18 H :    0.021675
  19 H :    0.041581
  20 H :    0.045055
  21 H :    0.031609

  Mayer bond orders larger than 0.100000
B(  0-C ,  1-C ) :   0.9933 B(  0-C , 18-H ) :   0.9830 B(  0-C , 19-H ) :   0.9765
B(  0-C , 20-H ) :   0.9665 B(  1-C ,  6-N ) :   1.1566 B(  1-C ,  9-O ) :   1.8618
B(  2-C ,  3-C ) :   1.0317 B(  2-C ,  4-C ) :   0.9439 B(  2-C ,  6-N ) :   0.8458
B(  2-C , 21-H ) :   0.9727 B(  3-C , 15-H ) :   0.9799 B(  3-C , 16-H ) :   0.9818
B(  3-C , 17-H ) :   0.9750 B(  4-C ,  7-N ) :   1.2053 B(  4-C ,  8-O ) :   1.9732
B(  5-C ,  7-N ) :   0.9092 B(  5-C , 12-H ) :   0.9872 B(  5-C , 13-H ) :   0.9917
B(  5-C , 14-H ) :   0.9935 B(  6-N , 10-H ) :   0.9506 B(  7-N , 11-H ) :   0.9123

FINAL SINGLE POINT ENERGY      -492.495339122840

DIPOLE MOMENT
-------------
                                X             Y             Z
Electronic contribution:      0.31842      -2.13494       0.23050
Nuclear contribution   :     -1.75854       2.46395      -0.61434
                        -----------------------------------------
Total Dipole Moment    :     -1.44013       0.32901      -0.38383
                        -----------------------------------------
Magnitude (a.u.)       :      1.52629
Magnitude (Debye)      :      3.87951

VIBRATIONAL FREQUENCIES
-----------------------

Scaling factor for frequencies =  1.000000000  (already applied!)

   0:         0.00 cm**-1
   1:         0.00 cm**-1
   2:         0.00 cm**-1
   3:         0.00 cm**-1
   4:         0.00 cm**-1
   5:         0.00 cm**-1
   6:        42.21 cm**-1
   7:        45.16 cm**-1
   8:        60.20 cm**-1
   9:        81.38 cm**-1
  10:       131.66 cm**-1
  11:       151.62 cm**-1
  12:       202.32 cm**-1
  13:       229.57 cm**-1
  14:       263.52 cm**-1
  15:       279.13 cm**-1
  16:       349.38 cm**-1
  17:       400.12 cm**-1
  18:       422.64 cm**-1
  19:       503.84 cm**-1
  20:       579.81 cm**-1
  21:       660.23 cm**-1
  22:       684.62 cm**-1
  23:       718.15 cm**-1
  24:       760.56 cm**-1
  25:       861.96 cm**-1
  26:       911.94 cm**-1
  27:       983.63 cm**-1
  28:      1016.72 cm**-1
  29:      1082.76 cm**-1
  30:      1120.89 cm**-1
  31:      1151.14 cm**-1
  32:      1206.19 cm**-1
  33:      1229.08 cm**-1
  34:      1244.43 cm**-1
  35:      1259.99 cm**-1
  36:      1293.60 cm**-1
  37:      1399.51 cm**-1
  38:      1437.04 cm**-1
  39:      1448.05 cm**-1
  40:      1505.92 cm**-1
  41:      1518.05 cm**-1
  42:      1532.10 cm**-1
  43:      1565.78 cm**-1
  44:      1567.60 cm**-1
  45:      1590.58 cm**-1
  46:      1591.22 cm**-1
  47:      1594.37 cm**-1
  48:      1607.89 cm**-1
  49:      1617.38 cm**-1
  50:      1702.20 cm**-1
  51:      1745.89 cm**-1
  52:      1937.71 cm**-1
  53:      1959.58 cm**-1
  54:      3183.51 cm**-1
  55:      3193.68 cm**-1
  56:      3198.48 cm**-1
  57:      3266.78 cm**-1
  58:      3273.69 cm**-1
  59:      3278.91 cm**-1
  60:      3285.08 cm**-1
  61:      3312.36 cm**-1
  62:      3318.50 cm**-1
  63:      3319.93 cm**-1
  64:      3818.82 cm**-1
  65:      3888.32 cm**-1

IR SPECTRUM
-----------

 Mode   freq       eps      Int      T**2         TX        TY        TZ
       cm**-1   L/(mol*cm) km/mol    a.u.
----------------------------------------------------------------------------
  6:     42.21   0.000235    1.19  0.001735  ( 0.009962  0.027553  0.029607)
  7:     45.16   0.000057    0.29  0.000393  ( 0.010040 -0.005221 -0.016279)
  8:     60.20   0.001215    6.14  0.006298  ( 0.054176  0.021706  0.053777)
  9:     81.38   0.001722    8.70  0.006601  (-0.031112  0.043682  0.061035)
 10:    131.66   0.002119   10.71  0.005022  (-0.061479  0.026038  0.023746)
 11:    151.62   0.000386    1.95  0.000794  ( 0.003875 -0.011471 -0.025440)
 12:    202.32   0.001234    6.24  0.001904  ( 0.028752 -0.031990  0.007351)
 13:    229.57   0.000213    1.08  0.000290  (-0.007828  0.012988 -0.007756)
 14:    263.52   0.000187    0.94  0.000221  ( 0.001488  0.004366 -0.014135)
 15:    279.13   0.002736   13.83  0.003059  ( 0.022524  0.003640  0.050383)
 16:    349.38   0.002174   10.99  0.001942  (-0.033056 -0.009605  0.027519)
 17:    400.12   0.000985    4.98  0.000768  ( 0.022110  0.004350 -0.016142)
 18:    422.64   0.002148   10.86  0.001586  (-0.017598 -0.012640 -0.033417)
 19:    503.84   0.017943   90.68  0.011113  ( 0.057091 -0.046318 -0.075554)
 20:    579.81   0.005607   28.34  0.003018  (-0.045117  0.025741 -0.017878)
 21:    660.23   0.002086   10.54  0.000986  ( 0.013609 -0.009505  0.026651)
 22:    684.62   0.009784   49.45  0.004460  ( 0.051740  0.018350  0.038027)
 23:    718.15   0.013607   68.77  0.005913  (-0.026515 -0.020640 -0.069166)
 24:    760.56   0.000717    3.62  0.000294  (-0.000690 -0.004768  0.016463)
 25:    861.96   0.000716    3.62  0.000259  (-0.006416 -0.012699 -0.007535)
 26:    911.94   0.001220    6.16  0.000417  ( 0.018421 -0.002365 -0.008513)
 27:    983.63   0.001198    6.05  0.000380  (-0.013182 -0.014267  0.001664)
 28:   1016.72   0.001046    5.29  0.000321  ( 0.003283  0.011550 -0.013303)
 29:   1082.76   0.001228    6.21  0.000354  (-0.010728  0.013635  0.007282)
 30:   1120.89   0.001919    9.70  0.000534  ( 0.004246  0.013262 -0.018451)
 31:   1151.14   0.003381   17.08  0.000916  ( 0.019079 -0.014941 -0.018143)
 32:   1206.19   0.001803    9.11  0.000467  ( 0.009238  0.001467 -0.019469)
 33:   1229.08   0.000119    0.60  0.000030  (-0.000504 -0.002696  0.004754)
 34:   1244.43   0.002150   10.87  0.000539  ( 0.018539 -0.000052 -0.013981)
 35:   1259.99   0.004011   20.27  0.000993  ( 0.030720 -0.005575 -0.004321)
 36:   1293.60   0.000982    4.96  0.000237  ( 0.014802  0.000002 -0.004205)
 37:   1399.51   0.022581  114.11  0.005035  ( 0.055783 -0.032673  0.029255)
 38:   1437.04   0.001524    7.70  0.000331  (-0.014705  0.010259  0.003086)
 39:   1448.05   0.010366   52.39  0.002234  ( 0.011956  0.016270 -0.042735)
 40:   1505.92   0.007360   37.19  0.001525  (-0.013684  0.030784 -0.019753)
 41:   1518.05   0.004778   24.15  0.000982  ( 0.019852 -0.020174  0.013458)
 42:   1532.10   0.010287   51.99  0.002095  ( 0.021078 -0.017760  0.036546)
 43:   1565.78   0.002971   15.01  0.000592  ( 0.018035  0.013600 -0.009051)
 44:   1567.60   0.002256   11.40  0.000449  ( 0.013662  0.015820  0.003501)
 45:   1590.58   0.002842   14.36  0.000558  ( 0.009923  0.020912  0.004668)
 46:   1591.22   0.000861    4.35  0.000169  (-0.003903 -0.001357 -0.012317)
 47:   1594.37   0.003725   18.83  0.000729  (-0.013537 -0.001936  0.023283)
 48:   1607.89   0.000202    1.02  0.000039  ( 0.006196  0.000540  0.000678)
 49:   1617.38   0.000640    3.23  0.000123  ( 0.006068 -0.008640  0.003463)
 50:   1702.20   0.051777  261.66  0.009492  (-0.040036  0.066875 -0.058457)
 51:   1745.89   0.065428  330.65  0.011695  ( 0.070416  0.044228 -0.069140)
 52:   1937.71   0.046121  233.08  0.007428  (-0.079304 -0.033553 -0.003566)
 53:   1959.58   0.097189  491.16  0.015477  (-0.002410  0.116976 -0.042287)
 54:   3183.51   0.012555   63.45  0.001231  (-0.033897 -0.005059  0.007489)
 55:   3193.68   0.003958   20.00  0.000387  (-0.002641  0.006868  0.018237)
 56:   3198.48   0.000973    4.92  0.000095  ( 0.009094  0.002694  0.002231)
 57:   3266.78   0.006982   35.29  0.000667  ( 0.005684  0.001253  0.025162)
 58:   3273.69   0.004693   23.72  0.000447  ( 0.019392 -0.007973  0.002781)
 59:   3278.91   0.001767    8.93  0.000168  ( 0.005968  0.009963 -0.005772)
 60:   3285.08   0.002238   11.31  0.000213  ( 0.003190  0.012289  0.007172)
 61:   3312.36   0.002424   12.25  0.000228  ( 0.000937  0.014913 -0.002266)
 62:   3318.50   0.001044    5.28  0.000098  (-0.004280 -0.007709  0.004521)
 63:   3319.93   0.002045   10.33  0.000192  ( 0.004557  0.009227 -0.009289)
 64:   3818.82   0.037678  190.41  0.003079  ( 0.035020 -0.041377  0.011853)
 65:   3888.32   0.011175   56.48  0.000897  ( 0.018679  0.023322 -0.002023)

--------------------------
THERMOCHEMISTRY AT 298.15K
--------------------------

Temperature         ... 298.15 K
Pressure            ... 1.00 atm
Total Mass          ... 144.17 AMU

Throughout the following assumptions are being made:
  (1) The electronic state is orbitally nondegenerate
  (2) There are no thermally accessible electronically excited states
  (3) Hindered rotations indicated by low frequency modes are not
      treated as such but are treated as vibrations and this may
      cause some error
  (4) All equations used are the standard statistical mechanics
      equations for an ideal gas
  (5) All vibrations are strictly harmonic

freq.      42.21  E(vib)   ...       0.53
freq.      45.16  E(vib)   ...       0.53
freq.      60.20  E(vib)   ...       0.51
freq.      81.38  E(vib)   ...       0.48
freq.     131.66  E(vib)   ...       0.42
freq.     151.62  E(vib)   ...       0.40
freq.     202.32  E(vib)   ...       0.35
freq.     229.57  E(vib)   ...       0.32
freq.     263.52  E(vib)   ...       0.29
freq.     279.13  E(vib)   ...       0.28
freq.     349.38  E(vib)   ...       0.23
freq.     400.12  E(vib)   ...       0.19
freq.     422.64  E(vib)   ...       0.18
freq.     503.84  E(vib)   ...       0.14
freq.     579.81  E(vib)   ...       0.11
freq.     660.23  E(vib)   ...       0.08
freq.     684.62  E(vib)   ...       0.07
freq.     718.15  E(vib)   ...       0.07
freq.     760.56  E(vib)   ...       0.06
freq.     861.96  E(vib)   ...       0.04
freq.     911.94  E(vib)   ...       0.03
freq.     983.63  E(vib)   ...       0.02
freq.    1016.72  E(vib)   ...       0.02
freq.    1082.76  E(vib)   ...       0.02
freq.    1120.89  E(vib)   ...       0.01
freq.    1151.14  E(vib)   ...       0.01
freq.    1206.19  E(vib)   ...       0.01
freq.    1229.08  E(vib)   ...       0.01
freq.    1244.43  E(vib)   ...       0.01
freq.    1259.99  E(vib)   ...       0.01
freq.    1293.60  E(vib)   ...       0.01
freq.    1399.51  E(vib)   ...       0.00
freq.    1437.04  E(vib)   ...       0.00
freq.    1448.05  E(vib)   ...       0.00
freq.    1505.92  E(vib)   ...       0.00
freq.    1518.05  E(vib)   ...       0.00
freq.    1532.10  E(vib)   ...       0.00
freq.    1565.78  E(vib)   ...       0.00
freq.    1567.60  E(vib)   ...       0.00
freq.    1590.58  E(vib)   ...       0.00
freq.    1591.22  E(vib)   ...       0.00
freq.    1594.37  E(vib)   ...       0.00
freq.    1607.89  E(vib)   ...       0.00
freq.    1617.38  E(vib)   ...       0.00
freq.    1702.20  E(vib)   ...       0.00
freq.    1745.89  E(vib)   ...       0.00
freq.    1937.71  E(vib)   ...       0.00
freq.    1959.58  E(vib)   ...       0.00
freq.    3183.51  E(vib)   ...       0.00
freq.    3193.68  E(vib)   ...       0.00
freq.    3198.48  E(vib)   ...       0.00
freq.    3266.78  E(vib)   ...       0.00
freq.    3273.69  E(vib)   ...       0.00
freq.    3278.91  E(vib)   ...       0.00
freq.    3285.08  E(vib)   ...       0.00
freq.    3312.36  E(vib)   ...       0.00
freq.    3318.50  E(vib)   ...       0.00
freq.    3319.93  E(vib)   ...       0.00
freq.    3818.82  E(vib)   ...       0.00
freq.    3888.32  E(vib)   ...       0.00

------------
INNER ENERGY
------------

The inner energy is: U= E(el) + E(ZPE) + E(vib) + E(rot) + E(trans)
    E(el)   - is the total energy from the electronic structure calculation
              = E(kin-el) + E(nuc-el) + E(el-el) + E(nuc-nuc)
    E(ZPE)  - the the zero temperature vibrational energy from the frequency calculation
    E(vib)  - the the finite temperature correction to E(ZPE) due to population
              of excited vibrational states
    E(rot)  - is the rotational thermal energy
    E(trans)- is the translational thermal energy

Summary of contributions to the inner energy U:
Electronic energy                ...   -492.49533912 Eh
Zero point energy                ...      0.19953871 Eh     125.21 kcal/mol
Thermal vibrational correction   ...      0.00877208 Eh       5.50 kcal/mol
Thermal rotational correction    ...      0.00141627 Eh       0.89 kcal/mol
Thermal translational correction ...      0.00141627 Eh       0.89 kcal/mol
-----------------------------------------------------------------------
Total thermal energy                   -492.28419579 Eh

Summary of corrections to the electronic energy:
(perhaps to be used in another calculation)
Total thermal correction                  0.01160462 Eh       7.28 kcal/mol
Non-thermal (ZPE) correction              0.19953871 Eh     125.21 kcal/mol
-----------------------------------------------------------------------
Total correction                          0.21114333 Eh     132.49 kcal/mol

--------
ENTHALPY
--------

The enthalpy is H = U + kB*T
                kB is Boltzmann's constant
Total free energy                 ...   -492.28419579 Eh
Thermal Enthalpy correction       ...      0.00094421 Eh       0.59 kcal/mol
-----------------------------------------------------------------------
Total Enthalpy                    ...   -492.28325158 Eh

Note: Only C1 symmetry has been detected, increase convergence thresholds
      if your molecule has a higher symmetry. Symmetry factor of 1.0 is
      used for the rotational entropy correction.

Note: Rotational entropy computed according to Herzberg
Infrared and Raman Spectra, Chapter V,1, Van Nostrand Reinhold, 1945
Point Group:  C1, Symmetry Number:   1
Rotational constants in cm-1:     0.066006     0.029939     0.025439

Vibrational entropy computed according to the QRRHO of S. Grimme
Chem.Eur.J. 2012 18 9955

-------
ENTROPY
-------

The entropy contributions are T*S = T*(S(el)+S(vib)+S(rot)+S(trans))
     S(el)   - electronic entropy
     S(vib)  - vibrational entropy
     S(rot)  - rotational entropy
     S(trans)- translational entropy
The entropies will be listed as multiplied by the temperature to get
units of energy

Electronic entropy                ...      0.00000000 Eh      0.00 kcal/mol
Vibrational entropy               ...      0.01579152 Eh      9.91 kcal/mol
Rotational entropy                ...      0.01418361 Eh      8.90 kcal/mol
Translational entropy             ...      0.01938939 Eh     12.17 kcal/mol
-----------------------------------------------------------------------
Final entropy term                ...      0.04936451 Eh     30.98 kcal/mol

In case the symmetry of your molecule has not been determined correctly
or in case you have a reason to use a different symmetry number we print
out the resulting rotational entropy values for sn=1,12 :
 --------------------------------------------------------
|  sn= 1 | S(rot)=       0.01418361 Eh      8.90 kcal/mol|
|  sn= 2 | S(rot)=       0.01352915 Eh      8.49 kcal/mol|
|  sn= 3 | S(rot)=       0.01314632 Eh      8.25 kcal/mol|

                             ****ORCA TERMINATED NORMALLY****
TOTAL RUN TIME: 0 days 0 hours 42 minutes 22 seconds 150 msec
