                         Program Version 5.0.4 -  RELEASE  -
|  1> # avogadro generated ORCA input file
|  2> # Basic Mode
|  3> #
|  4> ! RHF OPT FREQ def2-SVP
|  5>
|  6> * xyz 0 1
|  7>    C        1.43790        2.30627        4.02135
|  8>    C        1.30782        1.40689        2.82112
|  9>    C        0.81235        1.36436        0.38183
| 10>    C       -0.52630        0.63704        0.44957
| 11>    C        1.58386        0.03679        0.18282
| 12>    C        3.83033       -0.94795        0.05843
| 13>    N        1.13795        2.07265        1.62747
| 14>    N        2.95841        0.19401        0.14607
| 15>    O        1.02743       -1.02189       -0.09960
| 16>    O        1.39691        0.18958        2.91142
| 17>    H        0.86695        3.04642        1.66927
| 18>    H        3.30792        1.02582        0.60470
| 19>    H        3.43129       -1.68494       -0.64320
| 20>    H        3.91445       -1.39837        1.05103
| 21>    H        4.81286       -0.60748       -0.27622
| 22>    H       -0.80753        0.24310       -0.53304
| 23>    H       -1.32073        1.31341        0.78270
| 24>    H       -0.49345       -0.21027        1.14187
| 25>    H        1.35862        3.36262        3.75118
| 26>    H        2.41497        2.14019        4.48355
| 27>    H        0.64542        2.06646        4.73499
| 28>    H        0.72038        2.16019       -0.36941
| 29> *
| 30>
| 31>
| 32>                          ****END OF INPUT****
 Total Charge           Charge          ....    0
 Multiplicity           Mult            ....    1
 Number of Electrons    NEL             ....   78
FINAL SINGLE POINT ENERGY      -492.441944134844
FINAL SINGLE POINT ENERGY      -492.474553007365
FINAL SINGLE POINT ENERGY      -492.486432185516
FINAL SINGLE POINT ENERGY      -492.491138824070
FINAL SINGLE POINT ENERGY      -492.492012871831
FINAL SINGLE POINT ENERGY      -492.492255675791
FINAL SINGLE POINT ENERGY      -492.492534679990
FINAL SINGLE POINT ENERGY      -492.492617489531
FINAL SINGLE POINT ENERGY      -492.492657092691
FINAL SINGLE POINT ENERGY      -492.492676994385
FINAL SINGLE POINT ENERGY      -492.492702040795
FINAL SINGLE POINT ENERGY      -492.492728186312
FINAL SINGLE POINT ENERGY      -492.492750791809
FINAL SINGLE POINT ENERGY      -492.492792344653
FINAL SINGLE POINT ENERGY      -492.492853597631
FINAL SINGLE POINT ENERGY      -492.492895722208
FINAL SINGLE POINT ENERGY      -492.492907518780
FINAL SINGLE POINT ENERGY      -492.492911199757
FINAL SINGLE POINT ENERGY      -492.492912584804
                    ***********************HURRAY********************

CARTESIAN COORDINATES (ANGSTROEM)
---------------------------------
  C      1.484500    2.358362    3.970603
  C      1.282842    1.358559    2.854838
  C      0.697377    1.124477    0.459780
  C     -0.741104    0.636692    0.603118
  C      1.644953   -0.015782    0.062674
  C      3.943379   -0.819996    0.011406
  N      1.167706    1.893373    1.604812
  N      2.959004    0.201740    0.278255
  O      1.226456   -0.981904   -0.501496
  O      1.230248    0.183384    3.050735
  H      1.089256    2.885819    1.538352
  H      3.208074    0.952715    0.882419
  H      3.728642   -1.295120   -0.941861
  H      3.953586   -1.592705    0.783382
  H      4.929605   -0.360515   -0.039024
  H     -1.059555    0.144013   -0.311893
  H     -1.399065    1.486512    0.795658
  H     -0.829295   -0.073716    1.421982
  H      2.090311    3.208895    3.657943
  H      1.956329    1.856946    4.811129
  H      0.509749    2.730519    4.292648
  H      0.744812    1.812634   -0.387558

 Multiplicity           Mult            ....    1
 Number of Electrons    NEL             ....   78
 Basis Dimension        Dim             ....  200

ORBITAL ENERGIES
----------------

  NO   OCC          E(Eh)            E(eV)
   0   2.0000     -20.523878      -558.4831
   1   2.0000     -20.501942      -557.8862
   2   2.0000     -15.594276      -424.3418
   3   2.0000     -15.568766      -423.6477
   4   2.0000     -11.358735      -309.0869
   5   2.0000     -11.336806      -308.4902
   6   2.0000     -11.284111      -307.0563
   7   2.0000     -11.256223      -306.2974
   8   2.0000     -11.250860      -306.1515
   9   2.0000     -11.217969      -305.2564
  10   2.0000      -1.395423       -37.9714
  11   2.0000      -1.372528       -37.3484
  12   2.0000      -1.240095       -33.7447
  13   2.0000      -1.207397       -32.8550
  14   2.0000      -1.046362       -28.4730
  15   2.0000      -0.987618       -26.8745
  16   2.0000      -0.945259       -25.7218
  17   2.0000      -0.868127       -23.6229
  18   2.0000      -0.803806       -21.8727
  19   2.0000      -0.771114       -20.9831
  20   2.0000      -0.720983       -19.6190
  21   2.0000      -0.698952       -19.0195
  22   2.0000      -0.655396       -17.8342
  23   2.0000      -0.643039       -17.4980
  24   2.0000      -0.628234       -17.0951
  25   2.0000      -0.616985       -16.7890
  26   2.0000      -0.604466       -16.4484
  27   2.0000      -0.594562       -16.1789
  28   2.0000      -0.577504       -15.7147
  29   2.0000      -0.562631       -15.3100
  30   2.0000      -0.543564       -14.7911
  31   2.0000      -0.535301       -14.5663
  32   2.0000      -0.524569       -14.2743
  33   2.0000      -0.517825       -14.0907
  34   2.0000      -0.505444       -13.7538
  35   2.0000      -0.436394       -11.8749
  36   2.0000      -0.428120       -11.6497
  37   2.0000      -0.396043       -10.7769
  38   2.0000      -0.383762       -10.4427
  39   0.0000       0.143687         3.9099
  40   0.0000       0.178751         4.8641
  41   0.0000       0.183973         5.0062
  42   0.0000       0.195288         5.3141
  43   0.0000       0.218512         5.9460

MULLIKEN ATOMIC CHARGES
-----------------------
   0 C :   -0.029799
   1 C :    0.318949
   2 C :    0.032084
   3 C :    0.033100
   4 C :    0.418758
   5 C :    0.167992
   6 N :   -0.467108
   7 N :   -0.440307
   8 O :   -0.423074
   9 O :   -0.407899
  10 H :    0.149648
  11 H :    0.150325
  12 H :    0.055157
  13 H :    0.041571
  14 H :    0.023078
  15 H :    0.058804
  16 H :    0.014627
  17 H :    0.064847
  18 H :    0.040774
  19 H :    0.071456
  20 H :    0.069010
  21 H :    0.058008
Sum of atomic charges:    0.0000000

LOEWDIN ATOMIC CHARGES
----------------------
   0 C :   -0.052641
   1 C :    0.145623
   2 C :    0.033353
   3 C :   -0.024544
   4 C :    0.153324
   5 C :    0.072951
   6 N :   -0.088460
   7 N :   -0.081531
   8 O :   -0.282328
   9 O :   -0.271378
  10 H :    0.069653
  11 H :    0.063079
  12 H :    0.025889
  13 H :    0.014678
  14 H :    0.012838
  15 H :    0.030510
  16 H :    0.009693
  17 H :    0.030605
  18 H :    0.023707
  19 H :    0.041013
  20 H :    0.041827
  21 H :    0.032140

  Mayer bond orders larger than 0.100000
B(  0-C ,  1-C ) :   0.9928 B(  0-C , 18-H ) :   0.9801 B(  0-C , 19-H ) :   0.9788
B(  0-C , 20-H ) :   0.9671 B(  1-C ,  6-N ) :   1.0895 B(  1-C ,  9-O ) :   1.9733
B(  2-C ,  3-C ) :   1.0518 B(  2-C ,  4-C ) :   0.9189 B(  2-C ,  6-N ) :   0.8769
B(  2-C , 21-H ) :   0.9586 B(  3-C , 15-H ) :   0.9732 B(  3-C , 16-H ) :   0.9819
B(  3-C , 17-H ) :   0.9773 B(  4-C ,  7-N ) :   1.1785 B(  4-C ,  8-O ) :   1.9833
B(  5-C ,  7-N ) :   0.9100 B(  5-C , 12-H ) :   0.9875 B(  5-C , 13-H ) :   0.9905
B(  5-C , 14-H ) :   0.9931 B(  6-N , 10-H ) :   0.9490 B(  7-N , 11-H ) :   0.9406

FINAL SINGLE POINT ENERGY      -492.492912931255

DIPOLE MOMENT
-------------
                                X             Y             Z
Electronic contribution:     -0.31249      -2.02807      -1.03502
Nuclear contribution   :      0.88277       4.43189       1.46904
                        -----------------------------------------
Total Dipole Moment    :      0.57028       2.40382       0.43402
                        -----------------------------------------
Magnitude (a.u.)       :      2.50838
Magnitude (Debye)      :      6.37579

VIBRATIONAL FREQUENCIES
-----------------------

Scaling factor for frequencies =  1.000000000  (already applied!)

   0:         0.00 cm**-1
   1:         0.00 cm**-1
   2:         0.00 cm**-1
   3:         0.00 cm**-1
   4:         0.00 cm**-1
   5:         0.00 cm**-1
   6:        55.42 cm**-1
   7:        68.39 cm**-1
   8:        78.10 cm**-1
   9:        84.10 cm**-1
  10:        86.20 cm**-1
  11:       166.85 cm**-1
  12:       194.69 cm**-1
  13:       222.56 cm**-1
  14:       254.68 cm**-1
  15:       337.40 cm**-1
  16:       367.70 cm**-1
  17:       395.18 cm**-1
  18:       483.24 cm**-1
  19:       518.19 cm**-1
  20:       531.76 cm**-1
  21:       562.80 cm**-1
  22:       636.14 cm**-1
  23:       680.37 cm**-1
  24:       737.93 cm**-1
  25:       847.35 cm**-1
  26:       914.23 cm**-1
  27:       988.54 cm**-1
  28:      1016.19 cm**-1
  29:      1085.23 cm**-1
  30:      1136.32 cm**-1
  31:      1149.17 cm**-1
  32:      1174.55 cm**-1
  33:      1240.99 cm**-1
  34:      1242.67 cm**-1
  35:      1257.33 cm**-1
  36:      1288.37 cm**-1
  37:      1363.95 cm**-1
  38:      1382.22 cm**-1
  39:      1456.40 cm**-1
  40:      1483.46 cm**-1
  41:      1515.45 cm**-1
  42:      1528.67 cm**-1
  43:      1565.57 cm**-1
  44:      1567.26 cm**-1
  45:      1585.79 cm**-1
  46:      1586.78 cm**-1
  47:      1592.03 cm**-1
  48:      1604.52 cm**-1
  49:      1616.27 cm**-1
  50:      1681.18 cm**-1
  51:      1706.09 cm**-1
  52:      1972.83 cm**-1
  53:      1989.90 cm**-1
  54:      3186.62 cm**-1
  55:      3192.16 cm**-1
  56:      3192.51 cm**-1
  57:      3209.73 cm**-1
  58:      3268.70 cm**-1
  59:      3275.02 cm**-1
  60:      3288.46 cm**-1
  61:      3317.60 cm**-1
  62:      3323.81 cm**-1
  63:      3324.66 cm**-1
  64:      3872.28 cm**-1
  65:      3910.62 cm**-1

IR SPECTRUM
-----------

 Mode   freq       eps      Int      T**2         TX        TY        TZ
       cm**-1   L/(mol*cm) km/mol    a.u.
----------------------------------------------------------------------------
  6:     55.42   0.000400    2.02  0.002254  (-0.019422  0.032196 -0.028978)
  7:     68.39   0.000393    1.98  0.001791  ( 0.026741  0.013262 -0.030007)
  8:     78.10   0.000327    1.65  0.001305  ( 0.030794 -0.018733  0.002397)
  9:     84.10   0.002324   11.75  0.008624  ( 0.069149  0.018638 -0.059120)
 10:     86.20   0.000667    3.37  0.002414  (-0.045999 -0.016832  0.003801)
 11:    166.85   0.000428    2.16  0.000801  ( 0.002356 -0.006323  0.027490)
 12:    194.69   0.000605    3.06  0.000970  (-0.006963 -0.015158 -0.026292)
 13:    222.56   0.000191    0.97  0.000268  (-0.006031  0.015106 -0.001873)
 14:    254.68   0.000176    0.89  0.000215  (-0.006277 -0.010541  0.008056)
 15:    337.40   0.001752    8.85  0.001620  ( 0.038623 -0.009507  0.006161)
 16:    367.70   0.001888    9.54  0.001602  (-0.030042 -0.009257  0.024781)
 17:    395.18   0.002243   11.34  0.001771  (-0.038070  0.008041  0.016040)
 18:    483.24   0.005584   28.22  0.003606  ( 0.011837 -0.023150  0.054129)
 19:    518.19   0.006335   32.01  0.003815  ( 0.054601 -0.006384 -0.028158)
 20:    531.76   0.009800   49.53  0.005751  ( 0.036977  0.015890 -0.064276)
 21:    562.80   0.017410   87.98  0.009654  (-0.067134 -0.066606  0.026650)
 22:    636.14   0.009825   49.65  0.004820  (-0.056187 -0.016614  0.037240)
 23:    680.37   0.000787    3.98  0.000361  ( 0.012176 -0.013728  0.004920)
 24:    737.93   0.000842    4.25  0.000356  (-0.017076  0.002293 -0.007686)
 25:    847.35   0.003759   19.00  0.001385  (-0.013230 -0.014143  0.031772)
 26:    914.23   0.001812    9.16  0.000619  (-0.016832  0.015547  0.009671)
 27:    988.54   0.000119    0.60  0.000038  (-0.004806  0.002203 -0.003115)
 28:   1016.19   0.000564    2.85  0.000173  (-0.004891 -0.007124 -0.009921)
 29:   1085.23   0.004005   20.24  0.001152  (-0.016814 -0.011136  0.027292)
 30:   1136.32   0.000860    4.34  0.000236  (-0.013655 -0.006520 -0.002668)
 31:   1149.17   0.002807   14.19  0.000762  (-0.024280  0.008127  0.010329)
 32:   1174.55   0.000277    1.40  0.000073  (-0.006025  0.005815  0.001838)
 33:   1240.99   0.003998   20.20  0.001005  (-0.030000  0.002415  0.009976)
 34:   1242.67   0.000784    3.96  0.000197  (-0.010831  0.008771  0.001585)
 35:   1257.33   0.003343   16.89  0.000830  (-0.006129  0.018178  0.021485)
 36:   1288.37   0.000148    0.75  0.000036  (-0.005331  0.002263  0.001490)
 37:   1363.95   0.018905   95.54  0.004325  (-0.052667  0.029160  0.026483)
 38:   1382.22   0.022763  115.03  0.005139  ( 0.022074  0.006314  0.067912)
 39:   1456.40   0.003258   16.46  0.000698  (-0.016645  0.006276 -0.019535)
 40:   1483.46   0.008384   42.37  0.001764  ( 0.013835  0.005070  0.039327)
 41:   1515.45   0.007690   38.86  0.001584  (-0.003414  0.014628  0.036851)
 42:   1528.67   0.004696   23.73  0.000959  (-0.019565 -0.014614 -0.019032)
 43:   1565.57   0.003566   18.02  0.000711  ( 0.001009 -0.022680  0.013977)
 44:   1567.26   0.001426    7.21  0.000284  ( 0.012072 -0.004207  0.010976)
 45:   1585.79   0.001922    9.71  0.000378  ( 0.001811  0.014236 -0.013123)
 46:   1586.78   0.001473    7.44  0.000290  (-0.014313  0.002180 -0.008947)
 47:   1592.03   0.005055   25.55  0.000991  ( 0.028237  0.000005 -0.013912)
 48:   1604.52   0.001061    5.36  0.000206  ( 0.000668 -0.010593  0.009677)
 49:   1616.27   0.001248    6.30  0.000241  ( 0.006946 -0.013400  0.003613)
 50:   1681.18   0.052115  263.37  0.009674  ( 0.019328 -0.002398  0.096407)
 51:   1706.09   0.061618  311.39  0.011271  ( 0.105425 -0.012176  0.002850)
 52:   1972.83   0.051491  260.21  0.008145  ( 0.051371  0.053548  0.051366)
 53:   1989.90   0.072359  365.67  0.011348  (-0.007382 -0.105443  0.013223)
 54:   3186.62   0.011846   59.86  0.001160  ( 0.027668 -0.019400  0.004261)
 55:   3192.16   0.005281   26.69  0.000516  (-0.020922  0.006972  0.005471)
 56:   3192.51   0.001516    7.66  0.000148  ( 0.003517 -0.010955 -0.003978)
 57:   3209.73   0.003794   19.17  0.000369  (-0.000096 -0.009184  0.016868)
 58:   3268.70   0.007352   37.16  0.000702  ( 0.017510  0.013383 -0.014704)
 59:   3275.02   0.002492   12.59  0.000237  (-0.012693 -0.008088  0.003306)
 60:   3288.46   0.002860   14.46  0.000271  (-0.004148  0.015692  0.002831)
 61:   3317.60   0.002121   10.72  0.000200  (-0.006880 -0.005623 -0.010981)
 62:   3323.81   0.000954    4.82  0.000090  (-0.001314  0.006488 -0.006762)
 63:   3324.66   0.001596    8.06  0.000150  ( 0.002008 -0.001076  0.012025)
 64:   3872.28   0.009154   46.26  0.000738  (-0.002456  0.026143 -0.006945)
 65:   3910.62   0.010121   51.15  0.000808  ( 0.008927  0.020302  0.017772)

--------------------------
THERMOCHEMISTRY AT 298.15K
--------------------------

Temperature         ... 298.15 K
Pressure            ... 1.00 atm
Total Mass          ... 144.17 AMU

Throughout the following assumptions are being made:
  (1) The electronic state is orbitally nondegenerate
  (2) There are no thermally accessible electronically excited states
  (3) Hindered rotations indicated by low frequency modes are not
      treated as such but are treated as vibrations and this may
      cause some error
  (4) All equations used are the standard statistical mechanics
      equations for an ideal gas
  (5) All vibrations are strictly harmonic

freq.      55.42  E(vib)   ...       0.52
freq.      68.39  E(vib)   ...       0.50
freq.      78.10  E(vib)   ...       0.49
freq.      84.10  E(vib)   ...       0.48
freq.      86.20  E(vib)   ...       0.48
freq.     166.85  E(vib)   ...       0.39
freq.     194.69  E(vib)   ...       0.36
freq.     222.56  E(vib)   ...       0.33
freq.     254.68  E(vib)   ...       0.30
freq.     337.40  E(vib)   ...       0.24
freq.     367.70  E(vib)   ...       0.21
freq.     395.18  E(vib)   ...       0.20
freq.     483.24  E(vib)   ...       0.15
freq.     518.19  E(vib)   ...       0.13
freq.     531.76  E(vib)   ...       0.13
freq.     562.80  E(vib)   ...       0.11
freq.     636.14  E(vib)   ...       0.09
freq.     680.37  E(vib)   ...       0.08
freq.     737.93  E(vib)   ...       0.06
freq.     847.35  E(vib)   ...       0.04
freq.     914.23  E(vib)   ...       0.03
freq.     988.54  E(vib)   ...       0.02
freq.    1016.19  E(vib)   ...       0.02
freq.    1085.23  E(vib)   ...       0.02
freq.    1136.32  E(vib)   ...       0.01
freq.    1149.17  E(vib)   ...       0.01
freq.    1174.55  E(vib)   ...       0.01
freq.    1240.99  E(vib)   ...       0.01
freq.    1242.67  E(vib)   ...       0.01
freq.    1257.33  E(vib)   ...       0.01
freq.    1288.37  E(vib)   ...       0.01
freq.    1363.95  E(vib)   ...       0.01
freq.    1382.22  E(vib)   ...       0.01
freq.    1456.40  E(vib)   ...       0.00
freq.    1483.46  E(vib)   ...       0.00
freq.    1515.45  E(vib)   ...       0.00
freq.    1528.67  E(vib)   ...       0.00
freq.    1565.57  E(vib)   ...       0.00
freq.    1567.26  E(vib)   ...       0.00
freq.    1585.79  E(vib)   ...       0.00
freq.    1586.78  E(vib)   ...       0.00
freq.    1592.03  E(vib)   ...       0.00
freq.    1604.52  E(vib)   ...       0.00
freq.    1616.27  E(vib)   ...       0.00
freq.    1681.18  E(vib)   ...       0.00
freq.    1706.09  E(vib)   ...       0.00
freq.    1972.83  E(vib)   ...       0.00
freq.    1989.90  E(vib)   ...       0.00
freq.    3186.62  E(vib)   ...       0.00
freq.    3192.16  E(vib)   ...       0.00
freq.    3192.51  E(vib)   ...       0.00
freq.    3209.73  E(vib)   ...       0.00
freq.    3268.70  E(vib)   ...       0.00
freq.    3275.02  E(vib)   ...       0.00
freq.    3288.46  E(vib)   ...       0.00
freq.    3317.60  E(vib)   ...       0.00
freq.    3323.81  E(vib)   ...       0.00
freq.    3324.66  E(vib)   ...       0.00
freq.    3872.28  E(vib)   ...       0.00
freq.    3910.62  E(vib)   ...       0.00

------------
INNER ENERGY
------------

The inner energy is: U= E(el) + E(ZPE) + E(vib) + E(rot) + E(trans)
    E(el)   - is the total energy from the electronic structure calculation
              = E(kin-el) + E(nuc-el) + E(el-el) + E(nuc-nuc)
    E(ZPE)  - the the zero temperature vibrational energy from the frequency calculation
    E(vib)  - the the finite temperature correction to E(ZPE) due to population
              of excited vibrational states
    E(rot)  - is the rotational thermal energy
    E(trans)- is the translational thermal energy

Summary of contributions to the inner energy U:
Electronic energy                ...   -492.49291293 Eh
Zero point energy                ...      0.19902793 Eh     124.89 kcal/mol
Thermal vibrational correction   ...      0.00873476 Eh       5.48 kcal/mol
Thermal rotational correction    ...      0.00141627 Eh       0.89 kcal/mol
Thermal translational correction ...      0.00141627 Eh       0.89 kcal/mol
-----------------------------------------------------------------------
Total thermal energy                   -492.28231770 Eh

Summary of corrections to the electronic energy:
(perhaps to be used in another calculation)
Total thermal correction                  0.01156731 Eh       7.26 kcal/mol
Non-thermal (ZPE) correction              0.19902793 Eh     124.89 kcal/mol
-----------------------------------------------------------------------
Total correction                          0.21059523 Eh     132.15 kcal/mol

--------
ENTHALPY
--------

The enthalpy is H = U + kB*T
                kB is Boltzmann's constant
Total free energy                 ...   -492.28231770 Eh
Thermal Enthalpy correction       ...      0.00094421 Eh       0.59 kcal/mol
-----------------------------------------------------------------------
Total Enthalpy                    ...   -492.28137349 Eh

Note: Only C1 symmetry has been detected, increase convergence thresholds
      if your molecule has a higher symmetry. Symmetry factor of 1.0 is
      used for the rotational entropy correction.

Note: Rotational entropy computed according to Herzberg
Infrared and Raman Spectra, Chapter V,1, Van Nostrand Reinhold, 1945
Point Group:  C1, Symmetry Number:   1
Rotational constants in cm-1:     0.062925     0.032667     0.025514

Vibrational entropy computed according to the QRRHO of S. Grimme
Chem.Eur.J. 2012 18 9955

-------
ENTROPY
-------

The entropy contributions are T*S = T*(S(el)+S(vib)+S(rot)+S(trans))
     S(el)   - electronic entropy
     S(vib)  - vibrational entropy
     S(rot)  - rotational entropy
     S(trans)- translational entropy
The entropies will be listed as multiplied by the temperature to get
units of energy

Electronic entropy                ...      0.00000000 Eh      0.00 kcal/mol
Vibrational entropy               ...      0.01559300 Eh      9.78 kcal/mol
Rotational entropy                ...      0.01416362 Eh      8.89 kcal/mol
Translational entropy             ...      0.01938939 Eh     12.17 kcal/mol
-----------------------------------------------------------------------
Final entropy term                ...      0.04914600 Eh     30.84 kcal/mol

In case the symmetry of your molecule has not been determined correctly
or in case you have a reason to use a different symmetry number we print
out the resulting rotational entropy values for sn=1,12 :
 --------------------------------------------------------
|  sn= 1 | S(rot)=       0.01416362 Eh      8.89 kcal/mol|
|  sn= 2 | S(rot)=       0.01350916 Eh      8.48 kcal/mol|
|  sn= 3 | S(rot)=       0.01312633 Eh      8.24 kcal/mol|

                             ****ORCA TERMINATED NORMALLY****
TOTAL RUN TIME: 0 days 0 hours 55 minutes 17 seconds 696 msec
