                         Program Version 5.0.4 -  RELEASE  -
|  1> ! RHF OPT FREQ def2-SVP PAL8
|  2>
|  3> * xyz 0 1
|  4>   C   1.38328730900270      2.30861201152109      4.05310898988322
|  5>   C   1.36183561916426      1.42157163189341      2.82911528404962
|  6>   C   0.81270778323258      1.35510519647435      0.41501481727192
|  7>   C   -0.50850445368751      0.59520242039848      0.48109107780571
|  8>   C   1.95378520102934      0.46330829061383     -0.09328613338984
|  9>   C   4.36120992791643      0.11132567550915     -0.20109379291331
| 10>   N   1.13830991835494      2.06325819655215      1.64608407843041
| 11>   N   3.20570466778639      0.89649531307581      0.16330951010389
| 12>   O   1.71930298057271     -0.49469227105275     -0.76707007719942
| 13>   O   1.53017628341490      0.24256668284889      2.89079657482286
| 14>   H   0.88048746292137      3.02609363613559      1.68943107217470
| 15>   H   3.31470899279093      1.60769107532931      0.85133225727349
| 16>   H   4.23506124672461     -0.28104787981328     -1.20645160984078
| 17>   H   4.51680376555374     -0.73061780816489      0.47711415628422
| 18>   H   5.24498802536225      0.74755310436340     -0.18023703548140
| 19>   H   -0.73505007757742      0.15760155757405     -0.48769885481286
| 20>   H   -1.31259975635795      1.28031470515330      0.75717638728363
| 21>   H   -0.45778100709976     -0.20668828133864      1.21422574125078
| 22>   H   1.81064716462218      3.28955610025691      3.84497778636234
| 23>   H   1.95376975432826      1.81497864966271      4.83505751134801
| 24>   H   0.35970133381124      2.44783151559668      4.40685938242435
| 25>   H   0.72539785813378      2.13144047741041     -0.34885712313157
| 26> *
| 27>
| 28>                          ****END OF INPUT****
 Total Charge           Charge          ....    0
 Multiplicity           Mult            ....    1
 Number of Electrons    NEL             ....   78
FINAL SINGLE POINT ENERGY      -492.492911609498
                    ***********************HURRAY********************

CARTESIAN COORDINATES (ANGSTROEM)
---------------------------------
  C      1.382818    2.308715    4.053279
  C      1.361168    1.421509    2.829485
  C      0.813010    1.354982    0.415167
  C     -0.508365    0.595317    0.481339
  C      1.953975    0.462940   -0.093121
  C      4.361446    0.111445   -0.201711
  N      1.138682    2.063208    1.646249
  N      3.205880    0.896161    0.163288
  O      1.719418   -0.494740   -0.767348
  O      1.529288    0.242463    2.891362
  H      0.880310    3.025894    1.689632
  H      3.314947    1.607333    0.851269
  H      4.234605   -0.281633   -1.206708
  H      4.518011   -0.730054    0.476848
  H      5.245020    0.747998   -0.182064
  H     -0.734765    0.157555   -0.487421
  H     -1.312243    1.280795    0.757134
  H     -0.457830   -0.206327    1.214732
  H      1.811096    3.289244    3.845175
  H      1.952408    1.814676    4.835631
  H      0.359166    2.448731    4.406568
  H      0.725909    2.131249   -0.348784

 Multiplicity           Mult            ....    1
 Number of Electrons    NEL             ....   78
 Basis Dimension        Dim             ....  200

ORBITAL ENERGIES
----------------

  NO   OCC          E(Eh)            E(eV)
   0   2.0000     -20.523762      -558.4800
   1   2.0000     -20.501993      -557.8876
   2   2.0000     -15.594295      -424.3423
   3   2.0000     -15.568791      -423.6483
   4   2.0000     -11.358717      -309.0864
   5   2.0000     -11.336807      -308.4902
   6   2.0000     -11.284121      -307.0565
   7   2.0000     -11.256248      -306.2981
   8   2.0000     -11.250851      -306.1512
   9   2.0000     -11.217917      -305.2551
  10   2.0000      -1.395360       -37.9697
  11   2.0000      -1.372569       -37.3495
  12   2.0000      -1.240105       -33.7450
  13   2.0000      -1.207406       -32.8552
  14   2.0000      -1.046366       -28.4731
  15   2.0000      -0.987606       -26.8741
  16   2.0000      -0.945242       -25.7213
  17   2.0000      -0.868125       -23.6229
  18   2.0000      -0.803886       -21.8748
  19   2.0000      -0.771128       -20.9835
  20   2.0000      -0.721082       -19.6216
  21   2.0000      -0.698967       -19.0199
  22   2.0000      -0.655397       -17.8343
  23   2.0000      -0.643010       -17.4972
  24   2.0000      -0.628229       -17.0950
  25   2.0000      -0.616976       -16.7888
  26   2.0000      -0.604461       -16.4482
  27   2.0000      -0.594569       -16.1790
  28   2.0000      -0.577462       -15.7135
  29   2.0000      -0.562585       -15.3087
  30   2.0000      -0.543614       -14.7925
  31   2.0000      -0.535233       -14.5644
  32   2.0000      -0.524538       -14.2734
  33   2.0000      -0.517794       -14.0899
  34   2.0000      -0.505446       -13.7539
  35   2.0000      -0.436343       -11.8735
  36   2.0000      -0.428157       -11.6507
  37   2.0000      -0.395976       -10.7751
  38   2.0000      -0.383819       -10.4443
  39   0.0000       0.143686         3.9099
  40   0.0000       0.178795         4.8653
  41   0.0000       0.183964         5.0059
  42   0.0000       0.195255         5.3132
  43   0.0000       0.218417         5.9434

MULLIKEN ATOMIC CHARGES
-----------------------
   0 C :   -0.029517
   1 C :    0.318926
   2 C :    0.032294
   3 C :    0.033200
   4 C :    0.418768
   5 C :    0.168121
   6 N :   -0.467136
   7 N :   -0.440418
   8 O :   -0.422962
   9 O :   -0.408152
  10 H :    0.149687
  11 H :    0.150201
  12 H :    0.055008
  13 H :    0.041628
  14 H :    0.023042
  15 H :    0.058764
  16 H :    0.014665
  17 H :    0.064818
  18 H :    0.040432
  19 H :    0.071428
  20 H :    0.069203
  21 H :    0.057999
Sum of atomic charges:    0.0000000

LOEWDIN ATOMIC CHARGES
----------------------
   0 C :   -0.052601
   1 C :    0.145607
   2 C :    0.033377
   3 C :   -0.024532
   4 C :    0.153312
   5 C :    0.072981
   6 N :   -0.088240
   7 N :   -0.081638
   8 O :   -0.282175
   9 O :   -0.271617
  10 H :    0.069651
  11 H :    0.063035
  12 H :    0.025812
  13 H :    0.014717
  14 H :    0.012855
  15 H :    0.030492
  16 H :    0.009715
  17 H :    0.030604
  18 H :    0.023534
  19 H :    0.041034
  20 H :    0.041945
  21 H :    0.032135

  Mayer bond orders larger than 0.100000
B(  0-C ,  1-C ) :   0.9928 B(  0-C , 18-H ) :   0.9802 B(  0-C , 19-H ) :   0.9787
B(  0-C , 20-H ) :   0.9671 B(  1-C ,  6-N ) :   1.0899 B(  1-C ,  9-O ) :   1.9729
B(  2-C ,  3-C ) :   1.0519 B(  2-C ,  4-C ) :   0.9189 B(  2-C ,  6-N ) :   0.8766
B(  2-C , 21-H ) :   0.9587 B(  3-C , 15-H ) :   0.9732 B(  3-C , 16-H ) :   0.9819
B(  3-C , 17-H ) :   0.9773 B(  4-C ,  7-N ) :   1.1781 B(  4-C ,  8-O ) :   1.9834
B(  5-C ,  7-N ) :   0.9100 B(  5-C , 12-H ) :   0.9875 B(  5-C , 13-H ) :   0.9904
B(  5-C , 14-H ) :   0.9930 B(  6-N , 10-H ) :   0.9490 B(  7-N , 11-H ) :   0.9407

FINAL SINGLE POINT ENERGY      -492.492911983079

DIPOLE MOMENT
-------------
                                X             Y             Z
Electronic contribution:      0.05798      -1.92076      -1.25875
Nuclear contribution   :      0.06006       4.32568       1.96666
                        -----------------------------------------
Total Dipole Moment    :      0.11805       2.40492       0.70791
                        -----------------------------------------
Magnitude (a.u.)       :      2.50972
Magnitude (Debye)      :      6.37921

VIBRATIONAL FREQUENCIES
-----------------------

Scaling factor for frequencies =  1.000000000  (already applied!)

   0:         0.00 cm**-1
   1:         0.00 cm**-1
   2:         0.00 cm**-1
   3:         0.00 cm**-1
   4:         0.00 cm**-1
   5:         0.00 cm**-1
   6:        55.45 cm**-1
   7:        67.97 cm**-1
   8:        78.64 cm**-1
   9:        83.95 cm**-1
  10:        86.03 cm**-1
  11:       166.86 cm**-1
  12:       194.67 cm**-1
  13:       222.46 cm**-1
  14:       254.59 cm**-1
  15:       337.37 cm**-1
  16:       367.83 cm**-1
  17:       395.02 cm**-1
  18:       482.98 cm**-1
  19:       516.83 cm**-1
  20:       531.39 cm**-1
  21:       561.88 cm**-1
  22:       635.81 cm**-1
  23:       680.52 cm**-1
  24:       737.87 cm**-1
  25:       847.38 cm**-1
  26:       914.33 cm**-1
  27:       988.61 cm**-1
  28:      1016.27 cm**-1
  29:      1085.40 cm**-1
  30:      1136.42 cm**-1
  31:      1149.11 cm**-1
  32:      1174.45 cm**-1
  33:      1241.04 cm**-1
  34:      1242.68 cm**-1
  35:      1257.27 cm**-1
  36:      1288.44 cm**-1
  37:      1363.88 cm**-1
  38:      1382.27 cm**-1
  39:      1456.39 cm**-1
  40:      1483.57 cm**-1
  41:      1515.44 cm**-1
  42:      1528.80 cm**-1
  43:      1565.56 cm**-1
  44:      1567.32 cm**-1
  45:      1585.82 cm**-1
  46:      1586.87 cm**-1
  47:      1591.90 cm**-1
  48:      1604.56 cm**-1
  49:      1616.25 cm**-1
  50:      1681.29 cm**-1
  51:      1705.74 cm**-1
  52:      1972.94 cm**-1
  53:      1989.68 cm**-1
  54:      3186.76 cm**-1
  55:      3192.21 cm**-1
  56:      3192.67 cm**-1
  57:      3209.71 cm**-1
  58:      3268.93 cm**-1
  59:      3275.18 cm**-1
  60:      3288.39 cm**-1
  61:      3317.36 cm**-1
  62:      3323.56 cm**-1
  63:      3324.52 cm**-1
  64:      3873.10 cm**-1
  65:      3910.82 cm**-1

IR SPECTRUM
-----------

 Mode   freq       eps      Int      T**2         TX        TY        TZ
       cm**-1   L/(mol*cm) km/mol    a.u.
----------------------------------------------------------------------------
  6:     55.45   0.000401    2.03  0.002258  ( 0.025630 -0.031083  0.025191)
  7:     67.97   0.000348    1.76  0.001597  ( 0.020161  0.021029 -0.027360)
  8:     78.64   0.000398    2.01  0.001578  ( 0.038463 -0.009668 -0.002175)
  9:     83.95   0.002468   12.47  0.009173  ( 0.066506  0.040124 -0.056038)
 10:     86.03   0.000508    2.57  0.001844  (-0.036127 -0.023075 -0.002566)
 11:    166.86   0.000429    2.17  0.000803  (-0.003588  0.008796 -0.026694)
 12:    194.67   0.000604    3.05  0.000968  ( 0.004168  0.013175  0.027874)
 13:    222.46   0.000192    0.97  0.000269  ( 0.008837 -0.013804  0.000342)
 14:    254.59   0.000177    0.89  0.000216  ( 0.004156  0.012406 -0.006726)
 15:    337.37   0.001767    8.93  0.001634  (-0.039962  0.002693 -0.005497)
 16:    367.83   0.001872    9.46  0.001588  ( 0.027396  0.017352 -0.023168)
 17:    395.02   0.002242   11.33  0.001771  ( 0.038741  0.001292 -0.016397)
 18:    482.98   0.005558   28.09  0.003591  (-0.017795  0.026490 -0.050721)
 19:    516.83   0.007033   35.54  0.004247  ( 0.056565  0.009150 -0.031035)
 20:    531.39   0.009697   49.00  0.005694  (-0.032315 -0.030447  0.061018)
 21:    561.88   0.017050   86.16  0.009469  ( 0.052725  0.079986 -0.017077)
 22:    635.81   0.009538   48.20  0.004681  (-0.051289 -0.029996  0.033924)
 23:    680.52   0.000769    3.89  0.000353  ( 0.014218 -0.011727  0.003616)
 24:    737.87   0.000860    4.35  0.000364  ( 0.017520  0.000170  0.007528)
 25:    847.38   0.003753   18.96  0.001382  ( 0.010156  0.019829 -0.029760)
 26:    914.33   0.001818    9.19  0.000620  ( 0.019406 -0.011024 -0.011062)
 27:    988.61   0.000117    0.59  0.000037  ( 0.005067 -0.001730  0.002873)
 28:   1016.27   0.000569    2.87  0.000175  ( 0.003572  0.006801  0.010750)
 29:   1085.40   0.003993   20.18  0.001148  ( 0.014159  0.017091 -0.025600)
 30:   1136.42   0.000864    4.37  0.000237  (-0.012301 -0.008589 -0.003500)
 31:   1149.11   0.002812   14.21  0.000764  ( 0.025270 -0.002354 -0.010936)
 32:   1174.45   0.000279    1.41  0.000074  (-0.006998  0.004386  0.002422)
 33:   1241.04   0.003908   19.75  0.000983  ( 0.029484  0.004474 -0.009662)
 34:   1242.68   0.000868    4.39  0.000218  ( 0.013074 -0.006318 -0.002681)
 35:   1257.27   0.003329   16.82  0.000826  ( 0.009238 -0.014154 -0.023253)
 36:   1288.44   0.000139    0.70  0.000034  ( 0.005446 -0.001075 -0.001706)
 37:   1363.88   0.018887   95.45  0.004322  ( 0.057039 -0.015691 -0.028669)
 38:   1382.27   0.022733  114.88  0.005132  (-0.020848 -0.002661 -0.068487)
 39:   1456.39   0.003209   16.22  0.000688  ( 0.017617 -0.005142  0.018730)
 40:   1483.57   0.008381   42.36  0.001763  (-0.012888 -0.003093 -0.039841)
 41:   1515.44   0.007675   38.78  0.001580  ( 0.005750 -0.009351 -0.038209)
 42:   1528.80   0.004686   23.68  0.000956  (-0.016638 -0.015690 -0.020821)
 43:   1565.56   0.003586   18.12  0.000715  (-0.005525  0.023581 -0.011323)
 44:   1567.32   0.001401    7.08  0.000279  (-0.012739  0.002928 -0.010399)
 45:   1585.82   0.001963    9.92  0.000386  (-0.001494  0.015766 -0.011637)
 46:   1586.87   0.001408    7.12  0.000277  (-0.014287 -0.000160 -0.008529)
 47:   1591.90   0.005045   25.49  0.000989  ( 0.027598  0.006864 -0.013423)
 48:   1604.56   0.001059    5.35  0.000206  (-0.002643  0.011322 -0.008418)
 49:   1616.25   0.001234    6.24  0.000238  (-0.009269  0.012149 -0.002187)
 50:   1681.29   0.052265  264.13  0.009701  (-0.019959  0.009740 -0.095957)
 51:   1705.74   0.061629  311.45  0.011275  (-0.105879 -0.007422 -0.003096)
 52:   1972.94   0.051033  257.90  0.008072  (-0.040847 -0.055461 -0.057685)
 53:   1989.68   0.072789  367.84  0.011416  (-0.012234  0.106140 -0.000926)
 54:   3186.76   0.011845   59.86  0.001160  ( 0.030839 -0.014255  0.002382)
 55:   3192.21   0.005422   27.40  0.000530  (-0.022019  0.002723  0.006148)
 56:   3192.67   0.001349    6.82  0.000132  ( 0.004304 -0.009494 -0.004816)
 57:   3209.71   0.003795   19.18  0.000369  ( 0.001742 -0.010891  0.015725)
 58:   3268.93   0.007328   37.03  0.000700  ( 0.014587  0.017967 -0.012806)
 59:   3275.18   0.002504   12.65  0.000239  (-0.010869 -0.010741  0.002251)
 60:   3288.39   0.002865   14.48  0.000272  (-0.007002  0.014248  0.004458)
 61:   3317.36   0.002138   10.80  0.000201  ( 0.005814  0.005512  0.011702)
 62:   3323.56   0.000970    4.90  0.000091  (-0.002617  0.006898 -0.006052)
 63:   3324.52   0.001590    8.03  0.000149  ( 0.002227 -0.001964  0.011849)
 64:   3873.10   0.009209   46.54  0.000742  (-0.007259  0.025945 -0.004025)
 65:   3910.82   0.010089   50.98  0.000805  (-0.005130 -0.019437 -0.020022)

--------------------------
THERMOCHEMISTRY AT 298.15K
--------------------------

Temperature         ... 298.15 K
Pressure            ... 1.00 atm
Total Mass          ... 144.17 AMU

Throughout the following assumptions are being made:
  (1) The electronic state is orbitally nondegenerate
  (2) There are no thermally accessible electronically excited states
  (3) Hindered rotations indicated by low frequency modes are not
      treated as such but are treated as vibrations and this may
      cause some error
  (4) All equations used are the standard statistical mechanics
      equations for an ideal gas
  (5) All vibrations are strictly harmonic

freq.      55.45  E(vib)   ...       0.52
freq.      67.97  E(vib)   ...       0.50
freq.      78.64  E(vib)   ...       0.49
freq.      83.95  E(vib)   ...       0.48
freq.      86.03  E(vib)   ...       0.48
freq.     166.86  E(vib)   ...       0.39
freq.     194.67  E(vib)   ...       0.36
freq.     222.46  E(vib)   ...       0.33
freq.     254.59  E(vib)   ...       0.30
freq.     337.37  E(vib)   ...       0.24
freq.     367.83  E(vib)   ...       0.21
freq.     395.02  E(vib)   ...       0.20
freq.     482.98  E(vib)   ...       0.15
freq.     516.83  E(vib)   ...       0.13
freq.     531.39  E(vib)   ...       0.13
freq.     561.88  E(vib)   ...       0.11
freq.     635.81  E(vib)   ...       0.09
freq.     680.52  E(vib)   ...       0.08
freq.     737.87  E(vib)   ...       0.06
freq.     847.38  E(vib)   ...       0.04
freq.     914.33  E(vib)   ...       0.03
freq.     988.61  E(vib)   ...       0.02
freq.    1016.27  E(vib)   ...       0.02
freq.    1085.40  E(vib)   ...       0.02
freq.    1136.42  E(vib)   ...       0.01
freq.    1149.11  E(vib)   ...       0.01
freq.    1174.45  E(vib)   ...       0.01
freq.    1241.04  E(vib)   ...       0.01
freq.    1242.68  E(vib)   ...       0.01
freq.    1257.27  E(vib)   ...       0.01
freq.    1288.44  E(vib)   ...       0.01
freq.    1363.88  E(vib)   ...       0.01
freq.    1382.27  E(vib)   ...       0.01
freq.    1456.39  E(vib)   ...       0.00
freq.    1483.57  E(vib)   ...       0.00
freq.    1515.44  E(vib)   ...       0.00
freq.    1528.80  E(vib)   ...       0.00
freq.    1565.56  E(vib)   ...       0.00
freq.    1567.32  E(vib)   ...       0.00
freq.    1585.82  E(vib)   ...       0.00
freq.    1586.87  E(vib)   ...       0.00
freq.    1591.90  E(vib)   ...       0.00
freq.    1604.56  E(vib)   ...       0.00
freq.    1616.25  E(vib)   ...       0.00
freq.    1681.29  E(vib)   ...       0.00
freq.    1705.74  E(vib)   ...       0.00
freq.    1972.94  E(vib)   ...       0.00
freq.    1989.68  E(vib)   ...       0.00
freq.    3186.76  E(vib)   ...       0.00
freq.    3192.21  E(vib)   ...       0.00
freq.    3192.67  E(vib)   ...       0.00
freq.    3209.71  E(vib)   ...       0.00
freq.    3268.93  E(vib)   ...       0.00
freq.    3275.18  E(vib)   ...       0.00
freq.    3288.39  E(vib)   ...       0.00
freq.    3317.36  E(vib)   ...       0.00
freq.    3323.56  E(vib)   ...       0.00
freq.    3324.52  E(vib)   ...       0.00
freq.    3873.10  E(vib)   ...       0.00
freq.    3910.82  E(vib)   ...       0.00

------------
INNER ENERGY
------------

The inner energy is: U= E(el) + E(ZPE) + E(vib) + E(rot) + E(trans)
    E(el)   - is the total energy from the electronic structure calculation
              = E(kin-el) + E(nuc-el) + E(el-el) + E(nuc-nuc)
    E(ZPE)  - the the zero temperature vibrational energy from the frequency calculation
    E(vib)  - the the finite temperature correction to E(ZPE) due to population
              of excited vibrational states
    E(rot)  - is the rotational thermal energy
    E(trans)- is the translational thermal energy

Summary of contributions to the inner energy U:
Electronic energy                ...   -492.49291198 Eh
Zero point energy                ...      0.19902300 Eh     124.89 kcal/mol
Thermal vibrational correction   ...      0.00873746 Eh       5.48 kcal/mol
Thermal rotational correction    ...      0.00141627 Eh       0.89 kcal/mol
Thermal translational correction ...      0.00141627 Eh       0.89 kcal/mol
-----------------------------------------------------------------------
Total thermal energy                   -492.28231898 Eh

Summary of corrections to the electronic energy:
(perhaps to be used in another calculation)
Total thermal correction                  0.01157000 Eh       7.26 kcal/mol
Non-thermal (ZPE) correction              0.19902300 Eh     124.89 kcal/mol
-----------------------------------------------------------------------
Total correction                          0.21059300 Eh     132.15 kcal/mol

--------
ENTHALPY
--------

The enthalpy is H = U + kB*T
                kB is Boltzmann's constant
Total free energy                 ...   -492.28231898 Eh
Thermal Enthalpy correction       ...      0.00094421 Eh       0.59 kcal/mol
-----------------------------------------------------------------------
Total Enthalpy                    ...   -492.28137477 Eh

Note: Only C1 symmetry has been detected, increase convergence thresholds
      if your molecule has a higher symmetry. Symmetry factor of 1.0 is
      used for the rotational entropy correction.

Note: Rotational entropy computed according to Herzberg
Infrared and Raman Spectra, Chapter V,1, Van Nostrand Reinhold, 1945
Point Group:  C1, Symmetry Number:   1
Rotational constants in cm-1:     0.062900     0.032676     0.025518

Vibrational entropy computed according to the QRRHO of S. Grimme
Chem.Eur.J. 2012 18 9955

-------
ENTROPY
-------

The entropy contributions are T*S = T*(S(el)+S(vib)+S(rot)+S(trans))
     S(el)   - electronic entropy
     S(vib)  - vibrational entropy
     S(rot)  - rotational entropy
     S(trans)- translational entropy
The entropies will be listed as multiplied by the temperature to get
units of energy

Electronic entropy                ...      0.00000000 Eh      0.00 kcal/mol
Vibrational entropy               ...      0.01559772 Eh      9.79 kcal/mol
Rotational entropy                ...      0.01416359 Eh      8.89 kcal/mol
Translational entropy             ...      0.01938939 Eh     12.17 kcal/mol
-----------------------------------------------------------------------
Final entropy term                ...      0.04915069 Eh     30.84 kcal/mol

In case the symmetry of your molecule has not been determined correctly
or in case you have a reason to use a different symmetry number we print
out the resulting rotational entropy values for sn=1,12 :
 --------------------------------------------------------
|  sn= 1 | S(rot)=       0.01416359 Eh      8.89 kcal/mol|
|  sn= 2 | S(rot)=       0.01350913 Eh      8.48 kcal/mol|
|  sn= 3 | S(rot)=       0.01312630 Eh      8.24 kcal/mol|

                             ****ORCA TERMINATED NORMALLY****
TOTAL RUN TIME: 0 days 0 hours 4 minutes 18 seconds 679 msec
