                         Program Version 5.0.4 -  RELEASE  -
|  1> # avogadro generated ORCA input file
|  2> # Basic Mode
|  3> #
|  4> ! RHF OPT FREQ def2-SVP
|  5>
|  6> * xyz 0 1
|  7>    C       -1.05985        3.11466       -1.82690
|  8>    C        0.16770        3.00368       -0.96286
|  9>    C        1.15297        1.74552        0.96378
| 10>    C        1.35597        2.94563        1.88394
| 11>    C        2.59440        1.63069        0.41338
| 12>    C        3.93505        1.26295       -1.60438
| 13>    N        0.12301        1.96817       -0.05973
| 14>    N        2.66362        1.31960       -0.93185
| 15>    O        3.58542        1.65843        1.14009
| 16>    O        1.12298        3.75903       -1.08591
| 17>    H       -0.75434        1.48054        0.06851
| 18>    H        1.85186        1.58317       -1.47435
| 19>    H        4.62727        0.62922       -1.04343
| 20>    H        4.34369        2.27486       -1.67555
| 21>    H        3.78054        0.85321       -2.60557
| 22>    H        1.96353        2.66990        2.75354
| 23>    H        0.39761        3.33124        2.24865
| 24>    H        1.87897        3.76259        1.37524
| 25>    H       -1.60187        2.16554       -1.87196
| 26>    H       -0.75755        3.37859       -2.84450
| 27>    H       -1.71763        3.88905       -1.42489
| 28>    H        0.75446        0.92406        1.57383
| 29> *
| 30>
| 31>
| 32>
| 33>                          ****END OF INPUT****
 Total Charge           Charge          ....    0
 Multiplicity           Mult            ....    1
 Number of Electrons    NEL             ....   78
FINAL SINGLE POINT ENERGY      -492.465594401990
FINAL SINGLE POINT ENERGY      -492.484607236725
FINAL SINGLE POINT ENERGY      -492.489644063389
FINAL SINGLE POINT ENERGY      -492.491687142948
FINAL SINGLE POINT ENERGY      -492.492126299217
FINAL SINGLE POINT ENERGY      -492.492474536741
FINAL SINGLE POINT ENERGY      -492.492672868130
FINAL SINGLE POINT ENERGY      -492.492795814492
FINAL SINGLE POINT ENERGY      -492.492818359420
FINAL SINGLE POINT ENERGY      -492.492852013636
FINAL SINGLE POINT ENERGY      -492.492872164958
FINAL SINGLE POINT ENERGY      -492.492881172499
FINAL SINGLE POINT ENERGY      -492.492887311316
FINAL SINGLE POINT ENERGY      -492.492891523014
FINAL SINGLE POINT ENERGY      -492.492896083180
FINAL SINGLE POINT ENERGY      -492.492901731305
FINAL SINGLE POINT ENERGY      -492.492907625395
FINAL SINGLE POINT ENERGY      -492.492911584629
                    ***********************HURRAY********************

CARTESIAN COORDINATES (ANGSTROEM)
---------------------------------
  C     -1.135962    3.271651   -1.756459
  C      0.149886    3.133456   -0.973677
  C      1.249667    1.890054    0.864268
  C      1.175889    2.948755    1.960123
  C      2.667735    1.766698    0.289884
  C      4.039462    1.045075   -1.589529
  N      0.223636    2.041200   -0.159511
  N      2.771046    1.155408   -0.908952
  O      3.614037    2.102001    0.936946
  O      1.040355    3.921903   -1.061655
  H     -0.607535    1.501977   -0.041829
  H      1.937896    1.051678   -1.444011
  H      4.813482    0.777023   -0.875936
  H      4.329729    1.980523   -2.073264
  H      3.972852    0.264137   -2.345979
  H      1.912948    2.738424    2.730749
  H      0.180896    2.942272    2.409683
  H      1.377061    3.938553    1.556462
  H     -1.539129    2.305983   -2.061577
  H     -0.950704    3.888587   -2.631457
  H     -1.878390    3.772031   -1.131352
  H      1.062953    0.912943    1.316152

 Multiplicity           Mult            ....    1
 Number of Electrons    NEL             ....   78
 Basis Dimension        Dim             ....  200

ORBITAL ENERGIES
----------------

  NO   OCC          E(Eh)            E(eV)
   0   2.0000     -20.523869      -558.4829
   1   2.0000     -20.502082      -557.8900
   2   2.0000     -15.594313      -424.3428
   3   2.0000     -15.568742      -423.6470
   4   2.0000     -11.358764      -309.0877
   5   2.0000     -11.336934      -308.4937
   6   2.0000     -11.284136      -307.0569
   7   2.0000     -11.256071      -306.2933
   8   2.0000     -11.250883      -306.1521
   9   2.0000     -11.217975      -305.2566
  10   2.0000      -1.395426       -37.9715
  11   2.0000      -1.372617       -37.3508
  12   2.0000      -1.240134       -33.7458
  13   2.0000      -1.207406       -32.8552
  14   2.0000      -1.046409       -28.4742
  15   2.0000      -0.987640       -26.8750
  16   2.0000      -0.945203       -25.7203
  17   2.0000      -0.868081       -23.6217
  18   2.0000      -0.803893       -21.8750
  19   2.0000      -0.770936       -20.9782
  20   2.0000      -0.721009       -19.6196
  21   2.0000      -0.698992       -19.0205
  22   2.0000      -0.655366       -17.8334
  23   2.0000      -0.643154       -17.5011
  24   2.0000      -0.628263       -17.0959
  25   2.0000      -0.616909       -16.7869
  26   2.0000      -0.604501       -16.4493
  27   2.0000      -0.594614       -16.1803
  28   2.0000      -0.577532       -15.7154
  29   2.0000      -0.562611       -15.3094
  30   2.0000      -0.543263       -14.7829
  31   2.0000      -0.535334       -14.5672
  32   2.0000      -0.524593       -14.2749
  33   2.0000      -0.517832       -14.0909
  34   2.0000      -0.505686       -13.7604
  35   2.0000      -0.436373       -11.8743
  36   2.0000      -0.428147       -11.6505
  37   2.0000      -0.396143       -10.7796
  38   2.0000      -0.383806       -10.4439
  39   0.0000       0.143678         3.9097
  40   0.0000       0.178725         4.8634
  41   0.0000       0.183969         5.0060
  42   0.0000       0.195516         5.3203
  43   0.0000       0.218410         5.9432

MULLIKEN ATOMIC CHARGES
-----------------------
   0 C :   -0.029616
   1 C :    0.318853
   2 C :    0.031976
   3 C :    0.033390
   4 C :    0.418885
   5 C :    0.166788
   6 N :   -0.467113
   7 N :   -0.440336
   8 O :   -0.422712
   9 O :   -0.408143
  10 H :    0.149674
  11 H :    0.150093
  12 H :    0.056237
  13 H :    0.041273
  14 H :    0.023334
  15 H :    0.058858
  16 H :    0.014619
  17 H :    0.064701
  18 H :    0.040705
  19 H :    0.071446
  20 H :    0.069064
  21 H :    0.058023
Sum of atomic charges:   -0.0000000

LOEWDIN ATOMIC CHARGES
----------------------
   0 C :   -0.052609
   1 C :    0.145586
   2 C :    0.033420
   3 C :   -0.024559
   4 C :    0.153443
   5 C :    0.072736
   6 N :   -0.088288
   7 N :   -0.081836
   8 O :   -0.281951
   9 O :   -0.271581
  10 H :    0.069666
  11 H :    0.062980
  12 H :    0.026416
  13 H :    0.014398
  14 H :    0.012699
  15 H :    0.030535
  16 H :    0.009700
  17 H :    0.030560
  18 H :    0.023679
  19 H :    0.041010
  20 H :    0.041868
  21 H :    0.032126

  Mayer bond orders larger than 0.100000
B(  0-C ,  1-C ) :   0.9928 B(  0-C , 18-H ) :   0.9801 B(  0-C , 19-H ) :   0.9788
B(  0-C , 20-H ) :   0.9671 B(  1-C ,  6-N ) :   1.0899 B(  1-C ,  9-O ) :   1.9728
B(  2-C ,  3-C ) :   1.0517 B(  2-C ,  4-C ) :   0.9188 B(  2-C ,  6-N ) :   0.8766
B(  2-C , 21-H ) :   0.9587 B(  3-C , 15-H ) :   0.9732 B(  3-C , 16-H ) :   0.9819
B(  3-C , 17-H ) :   0.9773 B(  4-C ,  7-N ) :   1.1779 B(  4-C ,  8-O ) :   1.9835
B(  5-C ,  7-N ) :   0.9099 B(  5-C , 12-H ) :   0.9873 B(  5-C , 13-H ) :   0.9905
B(  5-C , 14-H ) :   0.9931 B(  6-N , 10-H ) :   0.9490 B(  7-N , 11-H ) :   0.9406

FINAL SINGLE POINT ENERGY      -492.492913366368

DIPOLE MOMENT
-------------
                                X             Y             Z
Electronic contribution:      2.09364       0.52051       0.81634
Nuclear contribution   :     -4.15167      -1.78315      -1.48956
                        -----------------------------------------
Total Dipole Moment    :     -2.05803      -1.26264      -0.67321
                        -----------------------------------------
Magnitude (a.u.)       :      2.50658
Magnitude (Debye)      :      6.37122

VIBRATIONAL FREQUENCIES
-----------------------

Scaling factor for frequencies =  1.000000000  (already applied!)

   0:         0.00 cm**-1
   1:         0.00 cm**-1
   2:         0.00 cm**-1
   3:         0.00 cm**-1
   4:         0.00 cm**-1
   5:         0.00 cm**-1
   6:        55.96 cm**-1
   7:        68.24 cm**-1
   8:        78.03 cm**-1
   9:        84.27 cm**-1
  10:        86.37 cm**-1
  11:       166.88 cm**-1
  12:       194.78 cm**-1
  13:       222.90 cm**-1
  14:       255.15 cm**-1
  15:       338.13 cm**-1
  16:       368.11 cm**-1
  17:       395.72 cm**-1
  18:       485.11 cm**-1
  19:       518.62 cm**-1
  20:       532.59 cm**-1
  21:       564.45 cm**-1
  22:       637.01 cm**-1
  23:       680.59 cm**-1
  24:       737.70 cm**-1
  25:       847.38 cm**-1
  26:       914.22 cm**-1
  27:       988.65 cm**-1
  28:      1016.21 cm**-1
  29:      1085.30 cm**-1
  30:      1136.52 cm**-1
  31:      1149.15 cm**-1
  32:      1174.32 cm**-1
  33:      1240.60 cm**-1
  34:      1242.87 cm**-1
  35:      1256.98 cm**-1
  36:      1287.71 cm**-1
  37:      1363.46 cm**-1
  38:      1382.26 cm**-1
  39:      1456.63 cm**-1
  40:      1483.39 cm**-1
  41:      1515.45 cm**-1
  42:      1528.76 cm**-1
  43:      1565.54 cm**-1
  44:      1566.84 cm**-1
  45:      1585.78 cm**-1
  46:      1586.80 cm**-1
  47:      1592.82 cm**-1
  48:      1604.56 cm**-1
  49:      1616.02 cm**-1
  50:      1681.30 cm**-1
  51:      1706.57 cm**-1
  52:      1973.23 cm**-1
  53:      1989.58 cm**-1
  54:      3185.95 cm**-1
  55:      3192.14 cm**-1
  56:      3192.57 cm**-1
  57:      3209.68 cm**-1
  58:      3267.59 cm**-1
  59:      3275.06 cm**-1
  60:      3288.36 cm**-1
  61:      3319.71 cm**-1
  62:      3323.72 cm**-1
  63:      3324.47 cm**-1
  64:      3872.74 cm**-1
  65:      3909.37 cm**-1

IR SPECTRUM
-----------

 Mode   freq       eps      Int      T**2         TX        TY        TZ
       cm**-1   L/(mol*cm) km/mol    a.u.
----------------------------------------------------------------------------
  6:     55.96   0.000407    2.05  0.002267  ( 0.020063  0.027743 -0.033084)
  7:     68.24   0.000421    2.13  0.001925  (-0.010769  0.042205  0.005233)
  8:     78.03   0.000396    2.00  0.001584  ( 0.025190 -0.010242 -0.029070)
  9:     84.27   0.001962    9.92  0.007265  ( 0.029373 -0.078187 -0.017006)
 10:     86.37   0.000912    4.61  0.003296  (-0.004194  0.043429  0.037313)
 11:    166.88   0.000430    2.17  0.000804  ( 0.006824 -0.021110  0.017647)
 12:    194.78   0.000599    3.03  0.000959  (-0.022309  0.006816 -0.020375)
 13:    222.90   0.000199    1.01  0.000279  ( 0.014036  0.006429 -0.006350)
 14:    255.15   0.000173    0.87  0.000212  ( 0.003646  0.014075  0.000573)
 15:    338.13   0.001718    8.68  0.001585  (-0.015998  0.009034  0.035321)
 16:    368.11   0.001838    9.29  0.001558  ( 0.012107 -0.035966 -0.010870)
 17:    395.72   0.002292   11.58  0.001808  ( 0.025123 -0.025470 -0.022972)
 18:    485.11   0.005173   26.14  0.003327  (-0.002010  0.040834 -0.040694)
 19:    518.62   0.008144   41.16  0.004900  (-0.035889  0.051610  0.030801)
 20:    532.59   0.007923   40.04  0.004642  ( 0.023770 -0.062795  0.011581)
 21:    564.45   0.017612   89.00  0.009737  ( 0.025110  0.088100  0.036669)
 22:    637.01   0.010304   52.07  0.005048  ( 0.018628 -0.063837 -0.025018)
 23:    680.59   0.000787    3.98  0.000361  ( 0.012886  0.006274 -0.012461)
 24:    737.70   0.000847    4.28  0.000358  (-0.003470  0.002228  0.018471)
 25:    847.38   0.003781   19.11  0.001393  ( 0.006209 -0.036048  0.007389)
 26:    914.22   0.001757    8.88  0.000600  (-0.022114  0.006584  0.008216)
 27:    988.65   0.000129    0.65  0.000041  (-0.002149 -0.000938  0.005926)
 28:   1016.21   0.000565    2.85  0.000173  ( 0.008891 -0.000638  0.009694)
 29:   1085.30   0.004023   20.33  0.001157  (-0.007825  0.033047 -0.001829)
 30:   1136.52   0.000869    4.39  0.000239  ( 0.002647  0.008437  0.012668)
 31:   1149.15   0.002823   14.27  0.000767  (-0.018640  0.014678  0.014276)
 32:   1174.32   0.000276    1.39  0.000073  ( 0.007468 -0.001017 -0.004054)
 33:   1240.60   0.003860   19.51  0.000971  ( 0.014239 -0.020549 -0.018597)
 34:   1242.87   0.001135    5.73  0.000285  ( 0.012845 -0.003813 -0.010262)
 35:   1256.98   0.003359   16.97  0.000834  ( 0.026912 -0.008142  0.006586)
 36:   1287.71   0.000191    0.96  0.000046  (-0.004292  0.002722  0.004520)
 37:   1363.46   0.019031   96.17  0.004356  (-0.051682  0.028209  0.029813)
 38:   1382.26   0.022806  115.25  0.005149  ( 0.029579 -0.032765  0.056571)
 39:   1456.63   0.003311   16.73  0.000709  ( 0.001476  0.008635 -0.025151)
 40:   1483.39   0.008410   42.50  0.001769  (-0.017782  0.017654 -0.033783)
 41:   1515.45   0.007699   38.91  0.001585  (-0.029843  0.019277 -0.017976)
 42:   1528.76   0.004663   23.57  0.000952  ( 0.015029  0.004333  0.026594)
 43:   1565.54   0.003454   17.45  0.000688  ( 0.013228  0.021075 -0.008326)
 44:   1566.84   0.001534    7.75  0.000306  ( 0.002218  0.004937 -0.016622)
 45:   1585.78   0.001950    9.86  0.000384  (-0.005636 -0.017614  0.006464)
 46:   1586.80   0.001456    7.36  0.000286  (-0.001918  0.000207  0.016810)
 47:   1592.82   0.005174   26.15  0.001014  ( 0.014797 -0.023467 -0.015620)
 48:   1604.56   0.001067    5.39  0.000208  ( 0.004841  0.011975 -0.006380)
 49:   1616.02   0.001370    6.92  0.000264  (-0.012233 -0.006261  0.008698)
 50:   1681.30   0.052137  263.48  0.009677  (-0.035624  0.058630 -0.070503)
 51:   1706.57   0.061101  308.78  0.011173  (-0.039250  0.042578  0.088428)
 52:   1973.23   0.050515  255.28  0.007989  (-0.052129 -0.017580 -0.070444)
 53:   1989.58   0.073339  370.62  0.011503  ( 0.081798  0.069331 -0.002332)
 54:   3185.95   0.011850   59.89  0.001161  ( 0.022130  0.000030 -0.025904)
 55:   3192.14   0.005501   27.80  0.000538  (-0.015048  0.010130  0.014447)
 56:   3192.57   0.001397    7.06  0.000137  ( 0.011543  0.001776 -0.000328)
 57:   3209.68   0.003792   19.16  0.000369  ( 0.000131  0.016636 -0.009586)
 58:   3267.59   0.007495   37.88  0.000716  ( 0.000627 -0.026120 -0.005758)
 59:   3275.06   0.002484   12.55  0.000237  (-0.001672 -0.012775 -0.008406)
 60:   3288.36   0.002864   14.47  0.000272  (-0.015671 -0.004600  0.002246)
 61:   3319.71   0.001907    9.63  0.000179  ( 0.007412 -0.001044  0.011099)
 62:   3323.72   0.000950    4.80  0.000089  (-0.002898 -0.007472  0.004996)
 63:   3324.47   0.001632    8.25  0.000153  (-0.004052  0.007942 -0.008584)
 64:   3872.74   0.009198   46.48  0.000741  ( 0.019739  0.017633 -0.006374)
 65:   3909.37   0.009981   50.44  0.000797  (-0.022382 -0.002827 -0.016965)

--------------------------
THERMOCHEMISTRY AT 298.15K
--------------------------

Temperature         ... 298.15 K
Pressure            ... 1.00 atm
Total Mass          ... 144.17 AMU

Throughout the following assumptions are being made:
  (1) The electronic state is orbitally nondegenerate
  (2) There are no thermally accessible electronically excited states
  (3) Hindered rotations indicated by low frequency modes are not
      treated as such but are treated as vibrations and this may
      cause some error
  (4) All equations used are the standard statistical mechanics
      equations for an ideal gas
  (5) All vibrations are strictly harmonic

freq.      55.96  E(vib)   ...       0.52
freq.      68.24  E(vib)   ...       0.50
freq.      78.03  E(vib)   ...       0.49
freq.      84.27  E(vib)   ...       0.48
freq.      86.37  E(vib)   ...       0.48
freq.     166.88  E(vib)   ...       0.39
freq.     194.78  E(vib)   ...       0.36
freq.     222.90  E(vib)   ...       0.33
freq.     255.15  E(vib)   ...       0.30
freq.     338.13  E(vib)   ...       0.24
freq.     368.11  E(vib)   ...       0.21
freq.     395.72  E(vib)   ...       0.20
freq.     485.11  E(vib)   ...       0.15
freq.     518.62  E(vib)   ...       0.13
freq.     532.59  E(vib)   ...       0.13
freq.     564.45  E(vib)   ...       0.11
freq.     637.01  E(vib)   ...       0.09
freq.     680.59  E(vib)   ...       0.08
freq.     737.70  E(vib)   ...       0.06
freq.     847.38  E(vib)   ...       0.04
freq.     914.22  E(vib)   ...       0.03
freq.     988.65  E(vib)   ...       0.02
freq.    1016.21  E(vib)   ...       0.02
freq.    1085.30  E(vib)   ...       0.02
freq.    1136.52  E(vib)   ...       0.01
freq.    1149.15  E(vib)   ...       0.01
freq.    1174.32  E(vib)   ...       0.01
freq.    1240.60  E(vib)   ...       0.01
freq.    1242.87  E(vib)   ...       0.01
freq.    1256.98  E(vib)   ...       0.01
freq.    1287.71  E(vib)   ...       0.01
freq.    1363.46  E(vib)   ...       0.01
freq.    1382.26  E(vib)   ...       0.01
freq.    1456.63  E(vib)   ...       0.00
freq.    1483.39  E(vib)   ...       0.00
freq.    1515.45  E(vib)   ...       0.00
freq.    1528.76  E(vib)   ...       0.00
freq.    1565.54  E(vib)   ...       0.00
freq.    1566.84  E(vib)   ...       0.00
freq.    1585.78  E(vib)   ...       0.00
freq.    1586.80  E(vib)   ...       0.00
freq.    1592.82  E(vib)   ...       0.00
freq.    1604.56  E(vib)   ...       0.00
freq.    1616.02  E(vib)   ...       0.00
freq.    1681.30  E(vib)   ...       0.00
freq.    1706.57  E(vib)   ...       0.00
freq.    1973.23  E(vib)   ...       0.00
freq.    1989.58  E(vib)   ...       0.00
freq.    3185.95  E(vib)   ...       0.00
freq.    3192.14  E(vib)   ...       0.00
freq.    3192.57  E(vib)   ...       0.00
freq.    3209.68  E(vib)   ...       0.00
freq.    3267.59  E(vib)   ...       0.00
freq.    3275.06  E(vib)   ...       0.00
freq.    3288.36  E(vib)   ...       0.00
freq.    3319.71  E(vib)   ...       0.00
freq.    3323.72  E(vib)   ...       0.00
freq.    3324.47  E(vib)   ...       0.00
freq.    3872.74  E(vib)   ...       0.00
freq.    3909.37  E(vib)   ...       0.00

------------
INNER ENERGY
------------

The inner energy is: U= E(el) + E(ZPE) + E(vib) + E(rot) + E(trans)
    E(el)   - is the total energy from the electronic structure calculation
              = E(kin-el) + E(nuc-el) + E(el-el) + E(nuc-nuc)
    E(ZPE)  - the the zero temperature vibrational energy from the frequency calculation
    E(vib)  - the the finite temperature correction to E(ZPE) due to population
              of excited vibrational states
    E(rot)  - is the rotational thermal energy
    E(trans)- is the translational thermal energy

Summary of contributions to the inner energy U:
Electronic energy                ...   -492.49291337 Eh
Zero point energy                ...      0.19904551 Eh     124.90 kcal/mol
Thermal vibrational correction   ...      0.00872649 Eh       5.48 kcal/mol
Thermal rotational correction    ...      0.00141627 Eh       0.89 kcal/mol
Thermal translational correction ...      0.00141627 Eh       0.89 kcal/mol
-----------------------------------------------------------------------
Total thermal energy                   -492.28230882 Eh

Summary of corrections to the electronic energy:
(perhaps to be used in another calculation)
Total thermal correction                  0.01155903 Eh       7.25 kcal/mol
Non-thermal (ZPE) correction              0.19904551 Eh     124.90 kcal/mol
-----------------------------------------------------------------------
Total correction                          0.21060455 Eh     132.16 kcal/mol

--------
ENTHALPY
--------

The enthalpy is H = U + kB*T
                kB is Boltzmann's constant
Total free energy                 ...   -492.28230882 Eh
Thermal Enthalpy correction       ...      0.00094421 Eh       0.59 kcal/mol
-----------------------------------------------------------------------
Total Enthalpy                    ...   -492.28136461 Eh

Note: Only C1 symmetry has been detected, increase convergence thresholds
      if your molecule has a higher symmetry. Symmetry factor of 1.0 is
      used for the rotational entropy correction.

Note: Rotational entropy computed according to Herzberg
Infrared and Raman Spectra, Chapter V,1, Van Nostrand Reinhold, 1945
Point Group:  C1, Symmetry Number:   1
Rotational constants in cm-1:     0.062849     0.032709     0.025534

Vibrational entropy computed according to the QRRHO of S. Grimme
Chem.Eur.J. 2012 18 9955

-------
ENTROPY
-------

The entropy contributions are T*S = T*(S(el)+S(vib)+S(rot)+S(trans))
     S(el)   - electronic entropy
     S(vib)  - vibrational entropy
     S(rot)  - rotational entropy
     S(trans)- translational entropy
The entropies will be listed as multiplied by the temperature to get
units of energy

Electronic entropy                ...      0.00000000 Eh      0.00 kcal/mol
Vibrational entropy               ...      0.01557660 Eh      9.77 kcal/mol
Rotational entropy                ...      0.01416320 Eh      8.89 kcal/mol
Translational entropy             ...      0.01938939 Eh     12.17 kcal/mol
-----------------------------------------------------------------------
Final entropy term                ...      0.04912919 Eh     30.83 kcal/mol

In case the symmetry of your molecule has not been determined correctly
or in case you have a reason to use a different symmetry number we print
out the resulting rotational entropy values for sn=1,12 :
 --------------------------------------------------------
|  sn= 1 | S(rot)=       0.01416320 Eh      8.89 kcal/mol|
|  sn= 2 | S(rot)=       0.01350875 Eh      8.48 kcal/mol|
|  sn= 3 | S(rot)=       0.01312591 Eh      8.24 kcal/mol|

                             ****ORCA TERMINATED NORMALLY****
TOTAL RUN TIME: 0 days 0 hours 51 minutes 42 seconds 756 msec
