                         Program Version 5.0.4 -  RELEASE  -
|  1> # avogadro generated ORCA input file
|  2> # Basic Mode
|  3> #
|  4> ! RHF OPT FREQ def2-SVP
|  5>
|  6> * xyz 0 1
|  7>    C       -2.94708        0.44289       -0.73613
|  8>    C       -1.87313        1.42505       -0.35252
|  9>    C        0.53183        1.61825        0.32130
| 10>    C        0.92991        2.74399       -0.62725
| 11>    C        0.38836        2.08093        1.78584
| 12>    C       -0.85748        3.53787        3.31577
| 13>    N       -0.64601        0.86061       -0.10684
| 14>    N       -0.50440        3.11114        1.98847
| 15>    H        1.35265        0.88912        0.31416
| 16>    O       -2.10042        2.62629       -0.24458
| 17>    H       -0.59699       -0.14406        0.01146
| 18>    H       -1.16833        3.29070        1.23196
| 19>    H        0.04720        3.70707        3.90568
| 20>    H       -1.45869        2.75711        3.78936
| 21>    H       -1.43673        4.46086        3.24351
| 22>    H       -3.72598        0.45069        0.03094
| 23>    H        1.87032        3.20089       -0.30114
| 24>    H        0.18588        3.54367       -0.67574
| 25>    H        1.07053        2.36058       -1.64305
| 26>    H       -2.55589       -0.57393       -0.82730
| 27>    H       -3.37252        0.73810       -1.69884
| 28>    O        0.99459        1.52547        2.70056
| 29> *
| 30>
| 31>
| 32>                          ****END OF INPUT****
 Total Charge           Charge          ....    0
 Multiplicity           Mult            ....    1
 Number of Electrons    NEL             ....   78
FINAL SINGLE POINT ENERGY      -492.485877745551
FINAL SINGLE POINT ENERGY      -492.493025727269
FINAL SINGLE POINT ENERGY      -492.494371034814
FINAL SINGLE POINT ENERGY      -492.494802735344
FINAL SINGLE POINT ENERGY      -492.494981911289
FINAL SINGLE POINT ENERGY      -492.495133689308
FINAL SINGLE POINT ENERGY      -492.495270730246
FINAL SINGLE POINT ENERGY      -492.495315973530
FINAL SINGLE POINT ENERGY      -492.495328480029
FINAL SINGLE POINT ENERGY      -492.495345714531
FINAL SINGLE POINT ENERGY      -492.495349092026
                    ***********************HURRAY********************

CARTESIAN COORDINATES (ANGSTROEM)
---------------------------------
  C     -2.946178    0.393778   -0.869706
  C     -1.911897    1.387881   -0.394721
  C      0.473374    1.620677    0.370834
  C      0.898826    2.711541   -0.611656
  C      0.379648    2.133246    1.816067
  C     -0.777622    3.572868    3.400994
  N     -0.710256    0.876119   -0.057222
  N     -0.572845    3.045414    2.073410
  H      1.268549    0.882604    0.421775
  O     -2.173936    2.558836   -0.324834
  H     -0.608852   -0.114403   -0.094512
  H     -1.241709    3.246501    1.356016
  H      0.179261    3.800600    3.864498
  H     -1.307100    2.869594    4.048512
  H     -1.362996    4.488016    3.330660
  H     -3.791825    0.424702   -0.183280
  H      1.828746    3.164582   -0.265613
  H      0.146931    3.488947   -0.713291
  H      1.077385    2.273543   -1.594803
  H     -2.575144   -0.627227   -0.938392
  H     -3.303480    0.715105   -1.847009
  O      1.158739    1.740370    2.637892

 Multiplicity           Mult            ....    1
 Number of Electrons    NEL             ....   78
 Basis Dimension        Dim             ....  200

ORBITAL ENERGIES
----------------

  NO   OCC          E(Eh)            E(eV)
   0   2.0000     -20.524752      -558.5069
   1   2.0000     -20.502330      -557.8968
   2   2.0000     -15.599127      -424.4738
   3   2.0000     -15.563360      -423.5005
   4   2.0000     -11.364960      -309.2563
   5   2.0000     -11.334264      -308.4210
   6   2.0000     -11.284356      -307.0629
   7   2.0000     -11.254901      -306.2614
   8   2.0000     -11.251380      -306.1656
   9   2.0000     -11.230590      -305.5999
  10   2.0000      -1.395352       -37.9695
  11   2.0000      -1.370672       -37.2979
  12   2.0000      -1.240656       -33.7600
  13   2.0000      -1.206752       -32.8374
  14   2.0000      -1.052105       -28.6292
  15   2.0000      -0.991891       -26.9907
  16   2.0000      -0.939433       -25.5633
  17   2.0000      -0.882692       -24.0193
  18   2.0000      -0.802306       -21.8318
  19   2.0000      -0.768631       -20.9155
  20   2.0000      -0.727415       -19.7940
  21   2.0000      -0.704178       -19.1617
  22   2.0000      -0.657225       -17.8840
  23   2.0000      -0.637984       -17.3604
  24   2.0000      -0.628616       -17.1055
  25   2.0000      -0.617651       -16.8071
  26   2.0000      -0.607408       -16.5284
  27   2.0000      -0.590216       -16.0606
  28   2.0000      -0.577481       -15.7141
  29   2.0000      -0.568934       -15.4815
  30   2.0000      -0.547563       -14.8999
  31   2.0000      -0.542311       -14.7570
  32   2.0000      -0.528468       -14.3804
  33   2.0000      -0.519623       -14.1397
  34   2.0000      -0.508835       -13.8461
  35   2.0000      -0.444111       -12.0849
  36   2.0000      -0.433485       -11.7957
  37   2.0000      -0.390350       -10.6220
  38   2.0000      -0.379380       -10.3234
  39   0.0000       0.153777         4.1845
  40   0.0000       0.172189         4.6855
  41   0.0000       0.191551         5.2124
  42   0.0000       0.198382         5.3982
  43   0.0000       0.203098         5.5266

MULLIKEN ATOMIC CHARGES
-----------------------
   0 C :   -0.013901
   1 C :    0.342949
   2 C :    0.077393
   3 C :    0.000214
   4 C :    0.388184
   5 C :    0.173152
   6 N :   -0.439789
   7 N :   -0.459918
   8 H :    0.052587
   9 O :   -0.471096
  10 H :    0.157432
  11 H :    0.188854
  12 H :    0.050083
  13 H :    0.030595
  14 H :    0.029189
  15 H :    0.072373
  16 H :    0.046448
  17 H :    0.066060
  18 H :    0.035349
  19 H :    0.030986
  20 H :    0.073081
  21 O :   -0.430222
Sum of atomic charges:    0.0000000

LOEWDIN ATOMIC CHARGES
----------------------
   0 C :   -0.046644
   1 C :    0.160359
   2 C :    0.041836
   3 C :   -0.026001
   4 C :    0.141133
   5 C :    0.072604
   6 N :   -0.064919
   7 N :   -0.079678
   8 H :    0.031117
   9 O :   -0.307830
  10 H :    0.075558
  11 H :    0.068328
  12 H :    0.023252
  13 H :    0.010290
  14 H :    0.016398
  15 H :    0.044782
  16 H :    0.026906
  17 H :    0.025873
  18 H :    0.019374
  19 H :    0.018626
  20 H :    0.045126
  21 O :   -0.296489

  Mayer bond orders larger than 0.100000
B(  0-C ,  1-C ) :   0.9920 B(  0-C , 15-H ) :   0.9695 B(  0-C , 19-H ) :   0.9847
B(  0-C , 20-H ) :   0.9715 B(  1-C ,  6-N ) :   1.1597 B(  1-C ,  9-O ) :   1.8590
B(  2-C ,  3-C ) :   1.0319 B(  2-C ,  4-C ) :   0.9413 B(  2-C ,  6-N ) :   0.8470
B(  2-C ,  8-H ) :   0.9728 B(  3-C , 16-H ) :   0.9806 B(  3-C , 17-H ) :   0.9742
B(  3-C , 18-H ) :   0.9813 B(  4-C ,  7-N ) :   1.1943 B(  4-C , 21-O ) :   1.9813
B(  5-C ,  7-N ) :   0.9120 B(  5-C , 12-H ) :   0.9873 B(  5-C , 13-H ) :   0.9916
B(  5-C , 14-H ) :   0.9932 B(  6-N , 10-H ) :   0.9485 B(  7-N , 11-H ) :   0.9129

FINAL SINGLE POINT ENERGY      -492.495353044367

DIPOLE MOMENT
-------------
                                X             Y             Z
Electronic contribution:      1.31517      -1.22695       1.26076
Nuclear contribution   :     -2.01059       0.41072      -2.21723
                        -----------------------------------------
Total Dipole Moment    :     -0.69542      -0.81623      -0.95647
                        -----------------------------------------
Magnitude (a.u.)       :      1.43690
Magnitude (Debye)      :      3.65231

VIBRATIONAL FREQUENCIES
-----------------------

Scaling factor for frequencies =  1.000000000  (already applied!)

   0:         0.00 cm**-1
   1:         0.00 cm**-1
   2:         0.00 cm**-1
   3:         0.00 cm**-1
   4:         0.00 cm**-1
   5:         0.00 cm**-1
   6:       -28.70 cm**-1 ***imaginary mode***
   7:        46.76 cm**-1
   8:        67.62 cm**-1
   9:        81.11 cm**-1
  10:       129.64 cm**-1
  11:       154.08 cm**-1
  12:       206.16 cm**-1
  13:       228.38 cm**-1
  14:       262.52 cm**-1
  15:       282.90 cm**-1
  16:       348.15 cm**-1
  17:       397.86 cm**-1
  18:       428.23 cm**-1
  19:       505.92 cm**-1
  20:       575.04 cm**-1
  21:       664.63 cm**-1
  22:       697.77 cm**-1
  23:       710.66 cm**-1
  24:       747.12 cm**-1
  25:       872.41 cm**-1
  26:       911.42 cm**-1
  27:       987.67 cm**-1
  28:      1018.67 cm**-1
  29:      1086.67 cm**-1
  30:      1118.78 cm**-1
  31:      1152.86 cm**-1
  32:      1203.01 cm**-1
  33:      1233.19 cm**-1
  34:      1244.15 cm**-1
  35:      1256.87 cm**-1
  36:      1293.83 cm**-1
  37:      1399.06 cm**-1
  38:      1439.05 cm**-1
  39:      1447.26 cm**-1
  40:      1506.76 cm**-1
  41:      1516.96 cm**-1
  42:      1534.20 cm**-1
  43:      1568.96 cm**-1
  44:      1571.91 cm**-1
  45:      1587.98 cm**-1
  46:      1589.99 cm**-1
  47:      1592.95 cm**-1
  48:      1607.53 cm**-1
  49:      1616.92 cm**-1
  50:      1702.23 cm**-1
  51:      1743.01 cm**-1
  52:      1935.39 cm**-1
  53:      1963.11 cm**-1
  54:      3182.58 cm**-1
  55:      3193.40 cm**-1
  56:      3202.77 cm**-1
  57:      3267.76 cm**-1
  58:      3271.62 cm**-1
  59:      3280.35 cm**-1
  60:      3298.57 cm**-1
  61:      3304.08 cm**-1
  62:      3310.80 cm**-1
  63:      3324.16 cm**-1
  64:      3819.69 cm**-1
  65:      3893.35 cm**-1

IR SPECTRUM
-----------

 Mode   freq       eps      Int      T**2         TX        TY        TZ
       cm**-1   L/(mol*cm) km/mol    a.u.
----------------------------------------------------------------------------
  7:     46.76   0.000817    4.13  0.005452  (-0.055138 -0.049024  0.002860)
  8:     67.62   0.000818    4.13  0.003775  (-0.036889 -0.043021  0.023725)
  9:     81.11   0.001421    7.18  0.005466  (-0.021677 -0.009451  0.070047)
 10:    129.64   0.002454   12.40  0.005908  (-0.002524 -0.028191 -0.071461)
 11:    154.08   0.000267    1.35  0.000542  (-0.010350 -0.015797  0.013600)
 12:    206.16   0.001152    5.82  0.001744  (-0.027762  0.004993 -0.030803)
 13:    228.38   0.000266    1.34  0.000363  (-0.017375 -0.000637 -0.007800)
 14:    262.52   0.000228    1.15  0.000271  ( 0.015830  0.000692 -0.004478)
 15:    282.90   0.002388   12.07  0.002634  (-0.038356 -0.032649  0.009834)
 16:    348.15   0.002348   11.87  0.002105  (-0.021131  0.027049  0.030440)
 17:    397.86   0.000913    4.61  0.000716  (-0.008763  0.019692  0.015861)
 18:    428.23   0.002524   12.76  0.001839  ( 0.029878  0.027261 -0.014268)
 19:    505.92   0.017589   88.89  0.010849  ( 0.035097  0.000376 -0.098067)
 20:    575.04   0.005080   25.67  0.002757  ( 0.030574  0.012654  0.040766)
 21:    664.63   0.005538   27.99  0.002600  ( 0.037331  0.034578 -0.003333)
 22:    697.77   0.009177   46.37  0.004104  (-0.010158 -0.063200 -0.002559)
 23:    710.66   0.011930   60.29  0.005239  (-0.034961 -0.052953  0.034821)
 24:    747.12   0.000350    1.77  0.000146  (-0.009027  0.008051 -0.000012)
 25:    872.41   0.000507    2.56  0.000181  (-0.008227 -0.010238  0.002972)
 26:    911.42   0.002279   11.52  0.000780  ( 0.005567  0.020794  0.017801)
 27:    987.67   0.000691    3.49  0.000218  ( 0.003534 -0.014301 -0.001168)
 28:   1018.67   0.001322    6.68  0.000405  (-0.017381  0.009102  0.004490)
 29:   1086.67   0.000629    3.18  0.000181  ( 0.001903  0.002387  0.013092)
 30:   1118.78   0.002000   10.10  0.000558  ( 0.020202 -0.012228  0.000300)
 31:   1152.86   0.003427   17.32  0.000928  (-0.010718 -0.005858  0.027900)
 32:   1203.01   0.001967    9.94  0.000510  ( 0.015860  0.000478 -0.016077)
 33:   1233.19   0.000185    0.93  0.000047  (-0.005664  0.003086 -0.002278)
 34:   1244.15   0.002154   10.88  0.000540  ( 0.003118 -0.018559 -0.013640)
 35:   1256.87   0.003655   18.47  0.000908  ( 0.002475 -0.011661 -0.027667)
 36:   1293.83   0.000730    3.69  0.000176  ( 0.004736 -0.002649 -0.012109)
 37:   1399.06   0.022072  111.54  0.004923  (-0.050875 -0.025612 -0.040975)
 38:   1439.05   0.001783    9.01  0.000387  (-0.001229 -0.001494 -0.019567)
 39:   1447.26   0.010311   52.11  0.002223  (-0.042953  0.008818  0.017335)
 40:   1506.76   0.007187   36.32  0.001488  ( 0.033444 -0.004735  0.018643)
 41:   1516.96   0.005907   29.85  0.001215  (-0.032844 -0.001218 -0.011621)
 42:   1534.20   0.008653   43.73  0.001760  (-0.040183 -0.011850 -0.002252)
 43:   1568.96   0.001146    5.79  0.000228  (-0.014444  0.002416  0.003682)
 44:   1571.91   0.001328    6.71  0.000264  (-0.003028 -0.005981  0.014791)
 45:   1587.98   0.004381   22.14  0.000861  ( 0.006262 -0.028310 -0.004509)
 46:   1589.99   0.000764    3.86  0.000150  (-0.010890 -0.002253 -0.005131)
 47:   1592.95   0.003725   18.82  0.000730  ( 0.004195 -0.024076 -0.011509)
 48:   1607.53   0.000253    1.28  0.000049  (-0.002894 -0.005464 -0.003300)
 49:   1616.92   0.000604    3.05  0.000117  ( 0.005061 -0.005752  0.007605)
 50:   1702.23   0.052176  263.68  0.009565  (-0.090594  0.000942 -0.036838)
 51:   1743.01   0.064673  326.83  0.011579  (-0.067748  0.066031  0.051274)
 52:   1935.39   0.046386  234.42  0.007479  (-0.005991  0.082136  0.026403)
 53:   1963.11   0.096041  485.35  0.015267  (-0.084878  0.069424 -0.056948)
 54:   3182.58   0.012314   62.23  0.001207  (-0.016672  0.005338  0.030017)
 55:   3193.40   0.004022   20.33  0.000393  (-0.012582 -0.006053  0.014075)
 56:   3202.77   0.001114    5.63  0.000109  ( 0.003144  0.009672  0.002266)
 57:   3267.76   0.006999   35.37  0.000668  (-0.004163 -0.025259  0.003617)
 58:   3271.62   0.005001   25.27  0.000477  (-0.008795 -0.010523 -0.016998)
 59:   3280.35   0.001809    9.14  0.000172  (-0.009731  0.008791 -0.000270)
 60:   3298.57   0.001254    6.34  0.000119  (-0.005166  0.006480  0.007068)
 61:   3304.08   0.002388   12.07  0.000225  (-0.005153  0.013844 -0.002700)
 62:   3310.80   0.002823   14.26  0.000266  ( 0.015224 -0.003373  0.004784)
 63:   3324.16   0.001710    8.64  0.000161  (-0.010647  0.006520  0.002154)
 64:   3819.69   0.036807  186.01  0.003007  (-0.036275 -0.000662 -0.041120)
 65:   3893.35   0.011476   57.99  0.000920  ( 0.009602 -0.028758  0.000782)

--------------------------
THERMOCHEMISTRY AT 298.15K
--------------------------

Temperature         ... 298.15 K
Pressure            ... 1.00 atm
Total Mass          ... 144.17 AMU

Throughout the following assumptions are being made:
  (1) The electronic state is orbitally nondegenerate
  (2) There are no thermally accessible electronically excited states
  (3) Hindered rotations indicated by low frequency modes are not
      treated as such but are treated as vibrations and this may
      cause some error
  (4) All equations used are the standard statistical mechanics
      equations for an ideal gas
  (5) All vibrations are strictly harmonic

freq.      46.76  E(vib)   ...       0.53
freq.      67.62  E(vib)   ...       0.50
freq.      81.11  E(vib)   ...       0.48
freq.     129.64  E(vib)   ...       0.43
freq.     154.08  E(vib)   ...       0.40
freq.     206.16  E(vib)   ...       0.35
freq.     228.38  E(vib)   ...       0.32
freq.     262.52  E(vib)   ...       0.29
freq.     282.90  E(vib)   ...       0.28
freq.     348.15  E(vib)   ...       0.23
freq.     397.86  E(vib)   ...       0.20
freq.     428.23  E(vib)   ...       0.18
freq.     505.92  E(vib)   ...       0.14
freq.     575.04  E(vib)   ...       0.11
freq.     664.63  E(vib)   ...       0.08
freq.     697.77  E(vib)   ...       0.07
freq.     710.66  E(vib)   ...       0.07
freq.     747.12  E(vib)   ...       0.06
freq.     872.41  E(vib)   ...       0.04
freq.     911.42  E(vib)   ...       0.03
freq.     987.67  E(vib)   ...       0.02
freq.    1018.67  E(vib)   ...       0.02
freq.    1086.67  E(vib)   ...       0.02
freq.    1118.78  E(vib)   ...       0.01
freq.    1152.86  E(vib)   ...       0.01
freq.    1203.01  E(vib)   ...       0.01
freq.    1233.19  E(vib)   ...       0.01
freq.    1244.15  E(vib)   ...       0.01
freq.    1256.87  E(vib)   ...       0.01
freq.    1293.83  E(vib)   ...       0.01
freq.    1399.06  E(vib)   ...       0.00
freq.    1439.05  E(vib)   ...       0.00
freq.    1447.26  E(vib)   ...       0.00
freq.    1506.76  E(vib)   ...       0.00
freq.    1516.96  E(vib)   ...       0.00
freq.    1534.20  E(vib)   ...       0.00
freq.    1568.96  E(vib)   ...       0.00
freq.    1571.91  E(vib)   ...       0.00
freq.    1587.98  E(vib)   ...       0.00
freq.    1589.99  E(vib)   ...       0.00
freq.    1592.95  E(vib)   ...       0.00
freq.    1607.53  E(vib)   ...       0.00
freq.    1616.92  E(vib)   ...       0.00
freq.    1702.23  E(vib)   ...       0.00
freq.    1743.01  E(vib)   ...       0.00
freq.    1935.39  E(vib)   ...       0.00
freq.    1963.11  E(vib)   ...       0.00
freq.    3182.58  E(vib)   ...       0.00
freq.    3193.40  E(vib)   ...       0.00
freq.    3202.77  E(vib)   ...       0.00
freq.    3267.76  E(vib)   ...       0.00
freq.    3271.62  E(vib)   ...       0.00
freq.    3280.35  E(vib)   ...       0.00
freq.    3298.57  E(vib)   ...       0.00
freq.    3304.08  E(vib)   ...       0.00
freq.    3310.80  E(vib)   ...       0.00
freq.    3324.16  E(vib)   ...       0.00
freq.    3819.69  E(vib)   ...       0.00
freq.    3893.35  E(vib)   ...       0.00

------------
INNER ENERGY
------------

The inner energy is: U= E(el) + E(ZPE) + E(vib) + E(rot) + E(trans)
    E(el)   - is the total energy from the electronic structure calculation
              = E(kin-el) + E(nuc-el) + E(el-el) + E(nuc-nuc)
    E(ZPE)  - the the zero temperature vibrational energy from the frequency calculation
    E(vib)  - the the finite temperature correction to E(ZPE) due to population
              of excited vibrational states
    E(rot)  - is the rotational thermal energy
    E(trans)- is the translational thermal energy

Summary of contributions to the inner energy U:
Electronic energy                ...   -492.49535304 Eh
Zero point energy                ...      0.19953680 Eh     125.21 kcal/mol
Thermal vibrational correction   ...      0.00789064 Eh       4.95 kcal/mol
Thermal rotational correction    ...      0.00141627 Eh       0.89 kcal/mol
Thermal translational correction ...      0.00141627 Eh       0.89 kcal/mol
-----------------------------------------------------------------------
Total thermal energy                   -492.28509306 Eh

Summary of corrections to the electronic energy:
(perhaps to be used in another calculation)
Total thermal correction                  0.01072318 Eh       6.73 kcal/mol
Non-thermal (ZPE) correction              0.19953680 Eh     125.21 kcal/mol
-----------------------------------------------------------------------
Total correction                          0.21025998 Eh     131.94 kcal/mol

--------
ENTHALPY
--------

The enthalpy is H = U + kB*T
                kB is Boltzmann's constant
Total free energy                 ...   -492.28509306 Eh
Thermal Enthalpy correction       ...      0.00094421 Eh       0.59 kcal/mol
-----------------------------------------------------------------------
Total Enthalpy                    ...   -492.28414885 Eh

Note: Only C1 symmetry has been detected, increase convergence thresholds
      if your molecule has a higher symmetry. Symmetry factor of 1.0 is
      used for the rotational entropy correction.

Note: Rotational entropy computed according to Herzberg
Infrared and Raman Spectra, Chapter V,1, Van Nostrand Reinhold, 1945
Point Group:  C1, Symmetry Number:   1
Rotational constants in cm-1:     0.064825     0.030055     0.025912

Vibrational entropy computed according to the QRRHO of S. Grimme
Chem.Eur.J. 2012 18 9955

-------
ENTROPY
-------

The entropy contributions are T*S = T*(S(el)+S(vib)+S(rot)+S(trans))
     S(el)   - electronic entropy
     S(vib)  - vibrational entropy
     S(rot)  - rotational entropy
     S(trans)- translational entropy
The entropies will be listed as multiplied by the temperature to get
units of energy

Electronic entropy                ...      0.00000000 Eh      0.00 kcal/mol
Vibrational entropy               ...      0.01393252 Eh      8.74 kcal/mol
Rotational entropy                ...      0.01418159 Eh      8.90 kcal/mol
Translational entropy             ...      0.01938939 Eh     12.17 kcal/mol
-----------------------------------------------------------------------
Final entropy term                ...      0.04750350 Eh     29.81 kcal/mol

In case the symmetry of your molecule has not been determined correctly
or in case you have a reason to use a different symmetry number we print
out the resulting rotational entropy values for sn=1,12 :
 --------------------------------------------------------
|  sn= 1 | S(rot)=       0.01418159 Eh      8.90 kcal/mol|
|  sn= 2 | S(rot)=       0.01352714 Eh      8.49 kcal/mol|
|  sn= 3 | S(rot)=       0.01314431 Eh      8.25 kcal/mol|
|  sn= 4 | S(rot)=       0.01287268 Eh      8.08 kcal/mol|

                             ****ORCA TERMINATED NORMALLY****
TOTAL RUN TIME: 0 days 0 hours 44 minutes 28 seconds 316 msec
